# vtk DataFile Version 3.0
vtk output
ASCII
DATASET POLYDATA
POINTS 10988 float
3.64 2.632 2.30893 3.64 2.688 2.28256 3.696 2.688 2.32064 
3.64 2.744 2.26917 3.696 2.744 2.28704 3.584 2.8 2.28826 
3.64 2.8 2.2696 3.696 2.8 2.28215 3.752 2.8 2.38618 
3.584 2.856 2.28297 3.64 2.856 2.27918 3.696 2.856 2.29595 
3.528 2.912 2.29734 3.584 2.912 2.26896 3.64 2.912 2.33206 
3.696 2.912 2.32736 3.528 2.968 2.26773 3.584 2.968 2.26781 
3.472 3.024 2.27695 3.528 3.024 2.26022 3.584 3.024 2.2781 
3.64 3.024 2.29326 3.416 3.08 2.30377 3.472 3.08 2.26757 
3.528 3.08 2.26534 3.584 3.08 2.26254 3.36 3.136 2.29163 
3.416 3.136 2.27161 3.472 3.136 2.26338 3.528 3.136 2.26676 
3.584 3.136 2.38066 3.248 3.192 2.33517 3.304 3.192 2.26702 
3.36 3.192 2.26394 3.416 3.192 2.26541 3.472 3.192 2.25703 
3.08 3.248 2.29233 3.136 3.248 2.27252 3.192 3.248 2.26387 
3.248 3.248 2.2644 3.304 3.248 2.2687 3.36 3.248 2.28286 
3.416 3.248 2.30006 3.472 3.248 2.31425 2.968 3.304 2.29227 
3.024 3.304 2.27223 3.08 3.304 2.26474 3.136 3.304 2.26634 
3.192 3.304 2.27827 3.248 3.304 2.30539 3.304 3.304 2.32305 
2.856 3.36 2.29005 2.912 3.36 2.26711 2.968 3.36 2.26392 
3.024 3.36 2.27274 3.08 3.36 2.29436 2.688 3.416 2.33902 
2.744 3.416 2.31594 2.8 3.416 2.27821 2.856 3.416 2.26149 
2.912 3.416 2.27598 2.968 3.416 2.30107 2.744 3.472 2.33059 
2.8 3.472 2.28987 2.856 3.472 2.36696 2.688 3.528 2.33984 
2.744 3.528 2.33005 2.688 3.584 2.34067 3.584 2.184 2.55866 
3.584 2.24 2.5202 3.584 2.296 2.49714 3.64 2.296 2.50536 
3.584 2.352 2.50036 3.64 2.352 2.47987 3.584 2.408 2.51142 
3.64 2.408 2.47453 3.696 2.408 2.59311 3.64 2.464 2.47163 
3.696 2.464 2.48225 3.64 2.52 2.46833 3.696 2.52 2.47619 
3.584 2.576 2.48282 3.64 2.59424 2.4 3.64 2.576 2.42383 
3.696 2.576 2.43838 3.60781 2.632 2.4 3.584 2.632 2.43717 
3.67853 2.632 2.4 3.696 2.65247 2.4 3.696 2.632 2.42158 
3.59468 2.688 2.4 3.584 2.688 2.42069 3.71822 2.688 2.4 
3.752 2.688 2.46547 3.58477 2.744 2.4 3.584 2.74514 2.4 
3.584 2.744 2.40181 3.72983 2.744 2.4 3.752 2.79551 2.4 
3.752 2.744 2.4544 3.55252 2.8 2.4 3.528 2.8 2.50996 
3.75587 2.8 2.4 3.752 2.85288 2.4 3.5442 2.856 2.4 
3.528 2.87574 2.4 3.528 2.856 2.43967 3.75178 2.856 2.4 
3.752 2.856 2.401 3.49925 2.912 2.4 3.472 2.912 2.51842 
3.64 2.95587 2.4 3.72046 2.912 2.4 3.696 2.93234 2.4 
3.752 2.912 2.51662 3.48496 2.968 2.4 3.472 2.98306 2.4 
3.472 2.968 2.43582 3.63619 2.968 2.4 3.64 2.97419 2.4 
3.64 2.968 2.41065 3.696 2.968 2.50484 3.43754 3.024 2.4 
3.416 3.05306 2.4 3.416 3.024 2.52265 3.66989 3.024 2.4 
3.64 3.06568 2.4 3.696 3.024 2.54863 3.38906 3.08 2.4 
3.36 3.10566 2.4 3.6315 3.08 2.4 3.64 3.08 2.4501 
3.248 3.17385 2.4 3.248 3.136 2.56689 3.32227 3.136 2.4 
3.304 3.14855 2.4 3.304 3.136 2.45723 3.528 3.18577 2.4 
3.58941 3.136 2.4 3.584 3.14514 2.4 3.08 3.21785 2.4 
3.08 3.192 2.50706 3.136 3.20676 2.4 3.136 3.192 2.4608 
3.21495 3.192 2.4 3.192 3.19957 2.4 3.192 3.192 2.42132 
3.52292 3.192 2.4 3.528 3.192 2.42541 3.584 3.192 2.48325 
2.968 3.27384 2.4 2.968 3.248 2.53122 3.043 3.248 2.4 
3.024 3.26216 2.4 3.024 3.248 2.44212 3.36 3.28935 2.4 
3.416 3.27598 2.4 3.5215 3.248 2.4 3.472 3.27201 2.4 
3.528 3.248 2.41093 2.856 3.32921 2.4 2.856 3.304 2.52913 
2.93172 3.304 2.4 2.912 3.31759 2.4 2.912 3.304 2.44241 
3.136 3.35062 2.4 3.192 3.34122 2.4 3.248 3.33147 2.4 
3.33509 3.304 2.4 3.304 3.32554 2.4 3.36 3.304 2.43705 
3.416 3.304 2.48334 3.472 3.304 2.50743 2.52 3.36 2.54928 
2.576 3.36 2.521 2.632 3.36 2.49456 2.688 3.39892 2.4 
2.688 3.36 2.46786 2.744 3.38731 2.4 2.744 3.36 2.45375 
2.81327 3.36 2.4 2.8 3.37097 2.4 2.8 3.36 2.42828 
3.024 3.3985 2.4 3.12111 3.36 2.4 3.08 3.38958 2.4 
3.136 3.36 2.42994 3.192 3.36 2.45155 3.248 3.36 2.57587 
2.52 3.416 2.50126 2.576 3.416 2.50148 2.67092 3.416 2.4 
2.632 3.416 2.54219 2.688 3.45493 2.4 2.912 3.45905 2.4 
2.99889 3.416 2.4 2.968 3.4437 2.4 3.024 3.416 2.4709 
3.08 3.416 2.542 2.632 3.472 2.52791 2.70288 3.472 2.4 
2.688 3.4893 2.4 2.688 3.472 2.41465 2.8 3.50713 2.4 
2.87209 3.472 2.4 2.856 3.48125 2.4 2.912 3.472 2.43244 
2.968 3.472 2.57341 2.65927 3.528 2.4 2.632 3.528 2.43604 
2.7678 3.528 2.4 2.744 3.54851 2.4 2.8 3.528 2.44825 
2.64344 3.584 2.4 2.632 3.584 2.4082 2.70547 3.584 2.4 
2.688 3.60061 2.4 2.744 3.584 2.45766 2.576 3.64 2.54816 
2.632 3.64 2.46932 2.688 3.64 2.49658 2.464 3.696 2.52081 
2.52 3.696 2.48578 2.576 3.696 2.47571 2.632 3.696 2.571 
2.464 3.752 2.49643 2.52 3.752 2.49543 2.576 3.752 2.57623 
3.192 4.256 2.48635 3.248 4.256 2.49273 3.304 4.256 2.53897 
3.136 4.312 2.49898 3.192 4.312 2.46075 3.248 4.312 2.45909 
3.304 4.312 2.47101 3.36 4.312 2.49795 3.192 4.368 2.47451 
3.248 4.368 2.47281 3.304 4.368 2.4476 3.36 4.368 2.48473 
3.416 4.368 2.50519 3.248 4.424 2.51297 3.304 4.424 2.48692 
3.36 4.424 2.45193 3.416 4.424 2.45586 3.472 4.424 2.492 
3.36 4.48 2.48371 3.416 4.48 2.48808 3.472 4.48 2.48263 
3.528 4.48 2.50448 3.528 4.536 2.53672 3.584 4.536 2.52869 
3.528 1.96 2.79902 3.528 2.016 2.69567 3.528 2.072 2.68275 
3.584 2.072 2.67535 3.528 2.128 2.6562 3.584 2.17243 2.6 
3.584 2.128 2.66085 3.64 2.128 2.6858 3.56946 2.184 2.6 
3.528 2.184 2.64561 3.59684 2.184 2.6 3.64 2.184 2.64694 
3.5519 2.24 2.6 3.528 2.24 2.63304 3.6281 2.24 2.6 
3.64 2.24931 2.6 3.64 2.24 2.61084 3.696 2.24 2.68855 
3.54383 2.296 2.6 3.528 2.296 2.63087 3.67421 2.296 2.6 
3.696 2.296 2.63544 3.5508 2.352 2.6 3.528 2.352 2.6853 
3.68856 2.352 2.6 3.696 2.4005 2.6 3.696 2.352 2.61454 
3.55793 2.408 2.6 3.528 2.408 2.73442 3.584 2.44716 2.6 
3.69793 2.408 2.6 3.752 2.408 2.7544 3.59297 2.464 2.6 
3.584 2.464 2.6225 3.73235 2.464 2.6 3.752 2.464 2.65968 
3.58904 2.52 2.6 3.584 2.52665 2.6 3.584 2.52 2.61203 
3.73619 2.52 2.6 3.752 2.52 2.64623 3.55119 2.576 2.6 
3.74846 2.576 2.6 3.752 2.576 2.61183 3.54157 2.632 2.6 
3.75069 2.632 2.6 3.752 2.63397 2.6 3.752 2.632 2.606 
2.128 2.688 2.74147 3.53872 2.688 2.6 3.78967 2.688 2.6 
3.53866 2.744 2.6 3.528 2.76958 2.6 3.79091 2.744 2.6 
3.50298 2.8 2.6 3.528 2.8 2.71095 3.78052 2.8 2.6 
3.752 2.8 2.72494 3.48887 2.856 2.6 3.472 2.88916 2.6 
3.528 2.856 2.79776 3.77799 2.856 2.6 3.752 2.856 2.69799 
3.44916 2.912 2.6 3.472 2.912 2.68312 3.7713 2.912 2.6 
3.752 2.9313 2.6 3.752 2.912 2.66892 3.43115 2.968 2.6 
3.416 3.00234 2.6 3.72264 2.968 2.6 3.696 2.968 2.69516 
3.39434 3.024 2.6 3.416 3.024 2.68435 3.71038 3.024 2.6 
3.696 3.03838 2.6 3.696 3.024 2.65137 3.248 3.12673 2.6 
3.304 3.10305 2.6 3.36611 3.08 2.6 3.36 3.08642 2.6 
3.67027 3.08 2.6 3.64 3.12179 2.6 3.64 3.08 2.70812 
3.08 3.16598 2.6 3.136 3.15895 2.6 3.23863 3.136 2.6 
3.192 3.15063 2.6 3.248 3.136 2.63771 3.304 3.136 2.76608 
3.62579 3.136 2.6 2.968 3.22874 2.6 3.05398 3.192 2.6 
3.024 3.20926 2.6 3.08 3.192 2.71743 3.60834 3.192 2.6 
3.584 3.24281 2.6 3.584 3.192 2.68815 2.296 3.248 2.75444 
2.352 3.248 2.74171 2.408 3.248 2.71423 2.856 3.28416 2.6 
2.94874 3.248 2.6 2.912 3.26468 2.6 2.968 3.248 2.67748 
3.58153 3.248 2.6 3.528 3.28329 2.6 2.352 3.304 2.71175 
2.408 3.304 2.68419 2.464 3.304 2.68022 2.52 3.3458 2.6 
2.52 3.304 2.7064 2.576 3.33788 2.6 2.576 3.304 2.70199 
2.632 3.32641 2.6 2.632 3.304 2.65136 2.688 3.32297 2.6 
2.688 3.304 2.75752 2.744 3.32346 2.6 2.83616 3.304 2.6 
2.8 3.32096 2.6 3.304 3.35859 2.6 3.36 3.34252 2.6 
3.416 3.33666 2.6 3.416 3.304 2.7417 3.49792 3.304 2.6 
3.472 3.32992 2.6 3.472 3.304 2.73633 2.296 3.36 2.71058 
2.352 3.36 2.69174 2.408 3.36 2.68448 2.50068 3.36 2.6 
2.464 3.36 2.63941 3.136 3.39904 2.6 3.192 3.39882 2.6 
3.28362 3.36 2.6 3.248 3.36635 2.6 3.248 3.36 2.63306 
2.352 3.416 2.74873 2.408 3.416 2.70331 2.48979 3.416 2.6 
2.464 3.416 2.71423 2.52 3.44365 2.6 2.576 3.46565 2.6 
3.024 3.44913 2.6 3.09624 3.416 2.6 3.08 3.43224 2.6 
3.08 3.416 2.67695 2.5861 3.472 2.6 2.576 3.472 2.66362 
2.856 3.52164 2.6 2.912 3.51216 2.6 2.97545 3.472 2.6 
2.968 3.47945 2.6 2.968 3.472 2.62958 2.5956 3.528 2.6 
2.84724 3.528 2.6 2.8 3.56697 2.6 2.856 3.528 2.72295 
2.59186 3.584 2.6 2.576 3.62549 2.6 2.78302 3.584 2.6 
2.744 3.62316 2.6 2.464 3.67383 2.6 2.5509 3.64 2.6 
2.52 3.65369 2.6 2.71713 3.64 2.6 2.688 3.66896 2.6 
2.44183 3.696 2.6 2.64012 3.696 2.6 2.632 3.70412 2.6 
2.42922 3.752 2.6 2.408 3.752 2.6357 2.464 3.79244 2.6 
2.52 3.78472 2.6 2.58265 3.752 2.6 2.576 3.75865 2.6 
2.408 3.808 2.63873 2.464 3.808 2.61963 2.52 3.808 2.63588 
2.576 3.808 2.71922 2.352 3.864 2.78463 2.408 3.864 2.66843 
2.464 3.864 2.64624 2.52 3.864 2.67566 2.408 3.92 2.68537 
2.464 3.92 2.68711 2.52 3.92 2.72775 4.592 3.92 2.78273 
4.648 3.92 2.77224 2.464 3.976 2.73398 4.536 3.976 2.79903 
4.592 3.976 2.70456 4.648 3.976 2.70786 4.536 4.032 2.73774 
4.592 4.032 2.68677 4.648 4.032 2.71618 4.592 4.088 2.76361 
3.192 4.22418 2.6 3.192 4.2 2.7702 3.248 4.22596 2.6 
3.248 4.2 2.72304 3.304 4.23891 2.6 3.14512 4.256 2.6 
3.136 4.26723 2.6 3.136 4.256 2.6358 3.32222 4.256 2.6 
3.36 4.28212 2.6 3.36 4.256 2.66086 3.10772 4.312 2.6 
3.136 4.35407 2.6 3.38857 4.312 2.6 3.416 4.34145 2.6 
3.416 4.312 2.68312 3.14535 4.368 2.6 3.136 4.368 2.63852 
3.192 4.40562 2.6 3.44255 4.368 2.6 3.472 4.39376 2.6 
3.472 4.368 2.67202 3.22092 4.424 2.6 3.192 4.424 2.65291 
3.248 4.44837 2.6 3.304 4.46534 2.6 3.50622 4.424 2.6 
3.528 4.44918 2.6 3.528 4.424 2.64261 3.584 4.424 2.75663 
3.248 4.48 2.76796 3.31796 4.48 2.6 3.304 4.48 2.64155 
3.36 4.51256 2.6 3.416 4.52284 2.6 3.472 4.53231 2.6 
3.55909 4.48 2.6 3.584 4.51188 2.6 3.584 4.48 2.64058 
3.64 4.48 2.78347 3.36 4.536 2.75045 3.416 4.536 2.62948 
3.48198 4.536 2.6 3.472 4.536 2.60632 3.528 4.55802 2.6 
3.60721 4.536 2.6 3.584 4.56301 2.6 3.64 4.536 2.64368 
3.696 4.536 2.70133 3.528 4.592 2.64846 3.584 4.592 2.63099 
3.64 4.592 2.60682 3.696 4.592 2.64251 3.752 4.592 2.6725 
3.64 4.648 2.64872 3.696 4.648 2.64383 3.752 4.648 2.64866 
3.808 4.648 2.67305 3.696 4.704 2.68286 3.752 4.704 2.64885 
3.808 4.704 2.67044 3.864 4.704 2.70972 3.808 4.76 2.69418 
3.864 4.76 2.69188 3.92 4.76 2.79123 3.864 4.816 2.76931 
3.92 4.816 2.74384 3.472 1.792 2.90391 3.472 1.848 2.87134 
[...]
POINT_DATA 10988
SCALARS scalars float
LOOKUP_TABLE default
0.16667 0.16667 0.16667 0.16667 0.16667 0.16667 0.16667 0.16667 0.16667 
0.16667 0.16667 0.16667 0.16667 0.16667 0.16667 0.16667 0.16667 0.16667 
0.16667 0.16667 0.16667 0.16667 0.16667 0.16667 0.16667 0.16667 0.16667 
0.16667 0.16667 0.16667 0.16667 0.16667 0.16667 0.16667 0.16667 0.16667 
0.16667 0.16667 0.16667 0.16667 0.16667 0.16667 0.16667 0.16667 0.16667 
0.16667 0.16667 0.16667 0.16667 0.16667 0.16667 0.16667 0.16667 0.16667 
0.16667 0.16667 0.16667 0.16667 0.16667 0.16667 0.16667 0.16667 0.16667 
0.16667 0.16667 0.16667 0.16667 0.16667 0.16667 0.16667 0.16667 0.16667 
0.16667 0.16667 0.16667 0.16667 0.16667 0.16667 0.16667 0.16667 0.16667 
0.16667 0.16667 0.16667 0.16667 0.16667 0.16667 0.16667 0.16667 0.16667 
0.16667 0.16667 0.16667 0.16667 0.16667 0.16667 0.16667 0.16667 0.16667 
0.16667 0.16667 0.16667 0.16667 0.16667 0.16667 0.16667 0.16667 0.16667 
0.16667 0.16667 0.16667 0.16667 0.16667 0.16667 0.16667 0.16667 0.16667 
0.16667 0.16667 0.16667 0.16667 0.16667 0.16667 0.16667 0.16667 0.16667 
0.16667 0.16667 0.16667 0.16667 0.16667 0.16667 0.16667 0.16667 0.16667 
0.16667 0.16667 0.16667 0.16667 0.16667 0.16667 0.16667 0.16667 0.16667 
0.16667 0.16667 0.16667 0.16667 0.16667 0.16667 0.16667 0.16667 0.16667 
0.16667 0.16667 0.16667 0.16667 0.16667 0.16667 0.16667 0.16667 0.16667 
0.16667 0.16667 0.16667 0.16667 0.16667 0.16667 0.16667 0.16667 0.16667 
0.16667 0.16667 0.16667 0.16667 0.16667 0.16667 0.16667 0.16667 0.16667 
0.16667 0.16667 0.16667 0.16667 0.16667 0.16667 0.16667 0.16667 0.16667 
0.16667 0.16667 0.16667 0.16667 0.16667 0.16667 0.16667 0.16667 0.16667 
0.16667 0.16667 0.16667 0.16667 0.16667 0.16667 0.16667 0.16667 0.16667 
0.16667 0.16667 0.16667 0.16667 0.16667 0.16667 0.16667 0.16667 0.16667 
0.16667 0.16667 0.16667 0.16667 0.16667 0.16667 0.16667 0.16667 0.16667 
0.16667 0.16667 0.16667 0.16667 0.16667 0.16667 0.16667 0.16667 0.16667 
0.16667 0.16667 0.16667 0.16667 0.16667 0.16667 0.16667 0.16667 0.16667 
0.16667 0.16667 0.16667 0.16667 0.16667 0.16667 0.16667 0.16667 0.16667 
0.16667 0.16667 0.16667 0.16667 0.16667 0.16667 0.16667 0.16667 0.16667 
0.16667 0.16667 0.16667 0.16667 0.16667 0.16667 0.16667 0.16667 0.16667 
0.16667 0.16667 0.16667 0.16667 0.16667 0.16667 0.16667 0.16667 0.16667 
0.16667 0.16667 0.16667 0.16667 0.16667 0.16667 0.16667 0.16667 0.16667 
0.16667 0.16667 0.16667 0.16667 0.16667 0.16667 0.16667 0.16667 0.16667 
0.16667 0.16667 0.16667 0.16667 0.16667 0.16667 0.16667 0.16667 0.16667 
0.16667 0.16667 0.16667 0.16667 0.16667 0.16667 0.16667 0.16667 0.16667 
0.16667 0.16667 0.16667 0.16667 0.16667 0.16667 0.16667 0.16667 0.16667 
0.16667 0.16667 0.16667 0.16667 0.16667 0.16667 0.16667 0.16667 0.16667 
0.16667 0.16667 0.16667 0.16667 0.16667 0.16667 0.16667 0.16667 0.16667 
0.16667 0.16667 0.16667 0.16667 0.16667 0.16667 0.16667 0.16667 0.16667 
0.16667 0.16667 0.16667 0.16667 0.16667 0.16667 0.16667 0.16667 0.16667 
0.16667 0.16667 0.16667 0.16667 0.16667 0.16667 0.16667 0.16667 0.16667 
0.16667 0.16667 0.16667 0.16667 0.16667 0.16667 0.16667 0.16667 0.16667 
0.16667 0.16667 0.16667 0.16667 0.16667 0.16667 0.16667 0.16667 0.16667 
0.16667 0.16667 0.16667 0.16667 0.16667 0.16667 0.16667 0.16667 0.16667 
0.16667 0.16667 0.16667 0.16667 0.16667 0.16667 0.16667 0.16667 0.16667 
0.16667 0.16667 0.16667 0.16667 0.16667 0.16667 0.16667 0.16667 0.16667 
0.16667 0.16667 0.16667 0.16667 0.16667 0.16667 0.16667 0.16667 0.16667 
0.16667 0.16667 0.16667 0.16667 0.16667 0.16667 0.16667 0.16667 0.16667 
0.16667 0.16667 0.16667 0.16667 0.16667 0.16667 0.16667 0.16667 0.16667 
0.16667 0.16667 0.16667 0.16667 0.16667 0.16667 0.16667 0.16667 0.16667 
0.16667 0.16667 0.16667 0.16667 0.16667 0.16667 0.16667 0.16667 0.16667 
0.16667 0.16667 0.16667 0.16667 0.16667 0.16667 0.16667 0.16667 0.16667 
0.16667 0.16667 0.16667 0.16667 0.16667 0.16667 0.16667 0.16667 0.16667 
0.16667 0.16667 0.16667 0.16667 0.16667 0.16667 0.16667 0.16667 0.16667 
0.16667 0.16667 0.16667 0.16667 0.16667 0.16667 0.16667 0.16667 0.16667 
0.16667 0.16667 0.16667 0.16667 0.16667 0.16667 0.16667 0.16667 0.16667 
0.16667 0.16667 0.16667 0.16667 0.16667 0.16667 0.16667 0.16667 0.16667 
0.16667 0.16667 0.16667 0.16667 0.16667 0.16667 0.16667 0.16667 0.16667 
0.16667 0.16667 0.16667 0.16667 0.16667 0.16667 0.16667 0.16667 0.16667 
0.16667 0.16667 0.16667 0.16667 0.16667 0.16667 0.16667 0.16667 0.16667 
0.16667 0.16667 0.16667 0.16667 0.16667 0.16667 0.16667 0.16667 0.16667 
0.16667 0.16667 0.16667 0.16667 0.16667 0.16667 0.16667 0.16667 0.16667 
0.16667 0.16667 0.16667 0.16667 0.16667 0.16667 0.16667 0.16667 0.16667 
0.16667 0.16667 0.16667 0.16667 0.16667 0.16667 0.16667 0.16667 0.16667 
0.16667 0.16667 0.16667 0.16667 0.16667 0.16667 0.16667 0.16667 0.16667 
0.16667 0.16667 0.16667 0.16667 0.16667 0.16667 0.16667 0.16667 0.16667 
0.16667 0.16667 0.16667 0.16667 0.16667 0.16667 0.16667 0.16667 0.16667 
0.16667 0.16667 0.16667 0.16667 0.16667 0.16667 0.16667 0.16667 0.16667 
0.16667 0.16667 0.16667 0.16667 0.16667 0.16667 0.16667 0.16667 0.16667 
0.16667 0.16667 0.16667 0.16667 0.16667 0.16667 0.16667 0.16667 0.16667 
0.16667 0.16667 0.16667 0.16667 0.16667 0.16667 0.16667 0.16667 0.16667 
0.16667 0.16667 0.16667 0.16667 0.16667 0.16667 0.16667 0.16667 0.16667 
0.16667 0.16667 0.16667 0.16667 0.16667 0.16667 0.16667 0.16667 0.16667 
0.16667 0.16667 0.16667 0.16667 0.16667 0.16667 0.16667 0.16667 0.16667 
0.16667 0.16667 0.16667 0.16667 0.16667 0.16667 0.16667 0.16667 0.16667 
0.16667 0.16667 0.16667 0.16667 0.16667 0.16667 0.16667 0.16667 0.16667 
0.16667 0.16667 0.16667 0.16667 0.16667 0.16667 0.16667 0.16667 0.16667 
0.16667 0.16667 0.16667 0.16667 0.16667 0.16667 0.16667 0.16667 0.16667 
0.16667 0.16667 0.16667 0.16667 0.16667 0.16667 0.16667 0.16667 0.16667 
0.16667 0.16667 0.16667 0.16667 0.16667 0.16667 0.16667 0.16667 0.16667 
0.16667 0.16667 0.16667 0.16667 0.16667 0.16667 0.16667 0.16667 0.16667 
0.16667 0.16667 0.16667 0.16667 0.16667 0.16667 0.16667 0.16667 0.16667 
0.16667 0.16667 0.16667 0.16667 0.16667 0.16667 0.16667 0.16667 0.16667 
0.16667 0.16667 0.16667 0.16667 0.16667 0.16667 0.16667 0.16667 0.16667 
0.16667 0.16667 0.16667 0.16667 0.16667 0.16667 0.16667 0.16667 0.16667 
0.16667 0.16667 0.16667 0.16667 0.16667 0.16667 0.16667 0.16667 0.16667 
0.16667 0.16667 0.16667 0.16667 0.16667 0.16667 0.16667 0.16667 0.16667 
0.16667 0.16667 0.16667 0.16667 0.16667 0.16667 0.16667 0.16667 0.16667 
0.16667 0.16667 0.16667 0.16667 0.16667 0.16667 0.16667 0.16667 0.16667 
0.16667 0.16667 0.16667 0.16667 0.16667 0.16667 0.16667 0.16667 0.16667 
0.16667 0.16667 0.16667 0.16667 0.16667 0.16667 0.16667 0.16667 0.16667 
0.16667 0.16667 0.16667 0.16667 0.16667 0.16667 0.16667 0.16667 0.16667 
0.16667 0.16667 0.16667 0.16667 0.16667 0.16667 0.16667 0.16667 0.16667 
0.16667 0.16667 0.16667 0.16667 0.16667 0.16667 0.16667 0.16667 0.16667 
0.16667 0.16667 0.16667 0.16667 0.16667 0.16667 0.16667 0.16667 0.16667 
0.16667 0.16667 0.16667 0.16667 0.16667 0.16667 0.16667 0.16667 0.16667 
0.16667 0.16667 0.16667 0.16667 0.16667 0.16667 0.16667 0.16667 0.16667 
0.16667 0.16667 0.16667 0.16667 0.16667 0.16667 0.16667 0.16667 0.16667 
0.16667 0.16667 0.16667 0.16667 0.16667 0.16667 0.16667 0.16667 0.16667 
0.16667 0.16667 0.16667 0.16667 0.16667 0.16667 0.16667 0.16667 0.16667 
0.16667 0.16667 0.16667 0.16667 0.16667 0.16667 0.16667 0.16667 0.16667 
0.16667 0.16667 0.16667 0.16667 0.16667 0.16667 0.16667 0.16667 0.16667 
0.16667 0.16667 0.16667 0.16667 0.16667 0.16667 0.16667 0.16667 0.16667 
0.16667 0.16667 0.16667 0.16667 0.16667 0.16667 0.16667 0.16667 0.16667 
0.16667 0.16667 0.16667 0.16667 0.16667 0.16667 0.16667 0.16667 0.16667 
0.16667 0.16667 0.16667 0.16667 0.16667 0.16667 0.16667 0.16667 0.16667 
0.16667 0.16667 0.16667 0.16667 0.16667 0.16667 0.16667 0.16667 0.16667 
0.16667 0.16667 0.16667 0.16667 0.16667 0.16667 0.16667 0.16667 0.16667 
0.16667 0.16667 0.16667 0.16667 0.16667 0.16667 0.16667 0.16667 0.16667 
0.16667 0.16667 0.16667 0.16667 0.16667 0.16667 0.16667 0.16667 0.16667 
0.16667 0.16667 0.16667 0.16667 0.16667 0.16667 0.16667 0.16667 0.16667 
0.16667 0.16667 0.16667 0.16667 0.16667 0.16667 0.16667 0.16667 0.16667 
0.16667 0.16667 0.16667 0.16667 0.16667 0.16667 0.16667 0.16667 0.16667 
0.16667 0.16667 0.16667 0.16667 0.16667 0.16667 0.16667 0.16667 0.16667 
0.16667 0.16667 0.16667 0.16667 0.16667 0.16667 0.16667 0.16667 0.16667 
0.16667 0.16667 0.16667 0.16667 0.16667 0.16667 0.16667 0.16667 0.16667 
0.16667 0.16667 0.16667 0.16667 0.16667 0.16667 0.16667 0.16667 0.16667 
0.16667 0.16667 0.16667 0.16667 0.16667 0.16667 0.16667 0.16667 0.16667 
0.16667 0.16667 0.16667 0.16667 0.16667 0.16667 0.16667 0.16667 0.16667 
0.16667 0.16667 0.16667 0.16667 0.16667 0.16667 0.16667 0.16667 0.16667 
0.16667 0.16667 0.16667 0.16667 0.16667 0.16667 0.16667 0.16667 0.16667 
0.16667 0.16667 0.16667 0.16667 0.16667 0.16667 0.16667 0.16667 0.16667 
0.16667 0.16667 0.16667 0.16667 0.16667 0.16667 0.16667 0.16667 0.16667 
0.16667 0.16667 0.16667 0.16667 0.16667 0.16667 0.16667 0.16667 0.16667 
0.16667 0.16667 0.16667 0.16667 0.16667 0.16667 0.16667 0.16667 0.16667 
0.16667 0.16667 0.16667 0.16667 0.16667 0.16667 0.16667 0.16667 0.16667 
0.16667 0.16667 0.16667 0.16667 0.16667 0.16667 0.16667 0.16667 0.16667 
0.16667 0.16667 0.16667 0.16667 0.16667 0.16667 0.16667 0.16667 0.16667 
0.16667 0.16667 0.16667 0.16667 0.16667 0.16667 0.16667 0.16667 0.16667 
0.16667 0.16667 0.16667 0.16667 0.16667 0.16667 0.16667 0.16667 0.16667 
0.16667 0.16667 0.16667 0.16667 0.16667 0.16667 0.16667 0.16667 0.16667 
0.16667 0.16667 0.16667 0.16667 0.16667 0.16667 0.16667 0.16667 0.16667 
0.16667 0.16667 0.16667 0.16667 0.16667 0.16667 0.16667 0.16667 0.16667 
0.16667 0.16667 0.16667 0.16667 0.16667 0.16667 0.16667 0.16667 0.16667 
0.16667 0.16667 0.16667 0.16667 0.16667 0.16667 0.16667 0.16667 0.16667 
0.16667 0.16667 0.16667 0.16667 0.16667 0.16667 0.16667 0.16667 0.16667 
0.16667 0.16667 0.16667 0.16667 0.16667 0.16667 0.16667 0.16667 0.16667 
0.16667 0.16667 0.16667 0.16667 0.16667 0.16667 0.16667 0.16667 0.16667 
0.16667 0.16667 0.16667 0.16667 0.16667 0.16667 0.16667 0.16667 0.16667 
0.16667 0.16667 0.16667 0.16667 0.16667 0.16667 0.16667 0.16667 0.16667 
0.16667 0.16667 0.16667 0.16667 0.16667 0.16667 0.16667 0.16667 0.16667 
0.16667 0.16667 0.16667 0.16667 0.16667 0.16667 0.16667 0.16667 0.16667 
0.16667 0.16667 0.16667 0.16667 0.16667 0.16667 0.16667 0.16667 0.16667 
0.16667 0.16667 0.16667 0.16667 0.16667 0.16667 0.16667 0.16667 0.16667 
0.16667 0.16667 0.16667 0.16667 0.16667 0.16667 0.16667 0.16667 0.16667 
0.16667 0.16667 0.16667 0.16667 0.16667 0.16667 0.16667 0.16667 0.16667 
0.16667 0.16667 0.16667 0.16667 0.16667 0.16667 0.16667 0.16667 0.16667 
0.16667 0.16667 0.16667 0.16667 0.16667 0.16667 0.16667 0.16667 0.16667 
0.16667 0.16667 0.16667 0.16667 0.16667 0.16667 0.16667 0.16667 0.16667 
0.16667 0.16667 0.16667 0.16667 0.16667 0.16667 0.16667 0.16667 0.16667 
0.16667 0.16667 0.16667 0.16667 0.16667 0.16667 0.16667 0.16667 0.16667 
0.16667 0.16667 0.16667 0.16667 0.16667 0.16667 0.16667 0.16667 0.16667 
0.16667 0.16667 0.16667 0.16667 0.16667 0.16667 0.16667 0.16667 0.16667 
0.16667 0.16667 0.16667 0.16667 0.16667 0.16667 0.16667 0.16667 0.16667 
0.16667 0.16667 0.16667 0.16667 0.16667 0.16667 0.16667 0.16667 0.16667 
0.16667 0.16667 0.16667 0.16667 0.16667 0.16667 0.16667 0.16667 0.16667 
0.16667 0.16667 0.16667 0.16667 0.16667 0.16667 0.16667 0.16667 0.16667 
0.16667 0.16667 0.16667 0.16667 0.16667 0.16667 0.16667 0.16667 0.16667 
0.16667 0.16667 0.16667 0.16667 0.16667 0.16667 0.16667 0.16667 0.16667 
0.16667 0.16667 0.16667 0.16667 0.16667 0.16667 0.16667 0.16667 0.16667 
0.16667 0.16667 0.16667 0.16667 0.16667 0.16667 0.16667 0.16667 0.16667 
0.16667 0.16667 0.16667 0.16667 0.16667 0.16667 0.16667 0.16667 0.16667 
0.16667 0.16667 0.16667 0.16667 0.16667 0.16667 0.16667 0.16667 0.16667 
0.16667 0.16667 0.16667 0.16667 0.16667 0.16667 0.16667 0.16667 0.16667 
0.16667 0.16667 0.16667 0.16667 0.16667 0.16667 0.16667 0.16667 0.16667 
0.16667 0.16667 0.16667 0.16667 0.16667 0.16667 0.16667 0.16667 0.16667 
0.16667 0.16667 0.16667 0.16667 0.16667 0.16667 0.16667 0.16667 0.16667 
0.16667 0.16667 0.16667 0.16667 0.16667 0.16667 0.16667 0.16667 0.16667 
0.16667 0.16667 0.16667 0.16667 0.16667 0.16667 0.16667 0.16667 0.16667 
0.16667 0.16667 0.16667 0.16667 0.16667 0.16667 0.16667 0.16667 0.16667 
0.16667 0.16667 0.16667 0.16667 0.16667 0.16667 0.16667 0.16667 0.16667 
0.16667 0.16667 0.16667 0.16667 0.16667 0.16667 0.16667 0.16667 0.16667 
0.16667 0.16667 0.16667 0.16667 0.16667 0.16667 0.16667 0.16667 0.16667 
0.16667 0.16667 0.16667 0.16667 0.16667 0.16667 0.16667 0.16667 0.16667 
0.16667 0.16667 0.16667 0.16667 0.16667 0.16667 0.16667 0.16667 0.16667 
0.16667 0.16667 0.16667 0.16667 0.16667 0.16667 0.16667 0.16667 0.16667 
0.16667 0.16667 0.16667 0.16667 0.16667 0.16667 0.16667 0.16667 0.16667 
0.16667 0.16667 0.16667 0.16667 0.16667 0.16667 0.16667 0.16667 0.16667 
0.16667 0.16667 0.16667 0.16667 0.16667 0.16667 0.16667 0.16667 0.16667 
0.16667 0.16667 0.16667 0.16667 0.16667 0.16667 0.16667 0.16667 0.16667 
0.16667 0.16667 0.16667 0.16667 0.16667 0.16667 0.16667 0.16667 0.16667 
0.16667 0.16667 0.16667 0.16667 0.16667 0.16667 0.16667 0.16667 0.16667 
0.16667 0.16667 0.16667 0.16667 0.16667 0.16667 0.16667 0.16667 0.16667 
0.16667 0.16667 0.16667 0.16667 0.16667 0.16667 0.16667 0.16667 0.16667 
0.16667 0.16667 0.16667 0.16667 0.16667 0.16667 0.16667 0.16667 0.16667 
0.16667 0.16667 0.16667 0.16667 0.16667 0.16667 0.16667 0.16667 0.16667 
0.16667 0.16667 0.16667 0.16667 0.16667 0.16667 0.16667 0.16667 0.16667 
0.16667 0.16667 0.16667 0.16667 0.16667 0.16667 0.16667 0.16667 0.16667 
0.16667 0.16667 0.16667 0.16667 0.16667 0.16667 0.16667 0.16667 0.16667 
0.16667 0.16667 0.16667 0.16667 0.16667 0.16667 0.16667 0.16667 0.16667 
0.16667 0.16667 0.16667 0.16667 0.16667 0.16667 0.16667 0.16667 0.16667 
0.16667 0.16667 0.16667 0.16667 0.16667 0.16667 0.16667 0.16667 0.16667 
0.16667 0.16667 0.16667 0.16667 0.16667 0.16667 0.16667 0.16667 0.16667 
0.16667 0.16667 0.16667 0.16667 0.16667 0.16667 0.16667 0.16667 0.16667 
0.16667 0.16667 0.16667 0.16667 0.16667 0.16667 0.16667 0.16667 0.16667 
0.16667 0.16667 0.16667 0.16667 0.16667 0.16667 0.16667 0.16667 0.16667 
0.16667 0.16667 0.16667 0.16667 0.16667 0.16667 0.16667 0.16667 0.16667 
0.16667 0.16667 0.16667 0.16667 0.16667 0.16667 0.16667 0.16667 0.16667 
0.16667 0.16667 0.16667 0.16667 0.16667 0.16667 0.16667 0.16667 0.16667 
0.16667 0.16667 0.16667 0.16667 0.16667 0.16667 0.16667 0.16667 0.16667 
0.16667 0.16667 0.16667 0.16667 0.16667 0.16667 0.16667 0.16667 0.16667 
0.16667 0.16667 0.16667 0.16667 0.16667 0.16667 0.16667 0.16667 0.16667 
0.16667 0.16667 0.16667 0.16667 0.16667 0.16667 0.16667 0.16667 0.16667 
0.16667 0.16667 0.16667 0.16667 0.16667 0.16667 0.16667 0.16667 0.16667 
0.16667 0.16667 0.16667 0.16667 0.16667 0.16667 0.16667 0.16667 0.16667 
0.16667 0.16667 0.16667 0.16667 0.16667 0.16667 0.16667 0.16667 0.16667 
0.16667 0.16667 0.16667 0.16667 0.16667 0.16667 0.16667 0.16667 0.16667 
0.16667 0.16667 0.16667 0.16667 0.16667 0.16667 0.16667 0.16667 0.16667 
0.16667 0.16667 0.16667 0.16667 0.16667 0.16667 0.16667 0.16667 0.16667 
0.16667 0.16667 0.16667 0.16667 0.16667 0.16667 0.16667 0.16667 0.16667 
0.16667 0.16667 0.16667 0.16667 0.16667 0.16667 0.16667 0.16667 0.16667 
0.16667 0.16667 0.16667 0.16667 0.16667 0.16667 0.16667 0.16667 0.16667 
0.16667 0.16667 0.16667 0.16667 0.16667 0.16667 0.16667 0.16667 0.16667 
0.16667 0.16667 0.16667 0.16667 0.16667 0.16667 0.16667 0.16667 0.16667 
0.16667 0.16667 0.16667 0.16667 0.16667 0.16667 0.16667 0.16667 0.16667 
0.16667 0.16667 0.16667 0.16667 0.16667 0.16667 0.16667 0.16667 0.16667 
0.16667 0.16667 0.16667 0.16667 0.16667 0.16667 0.16667 0.16667 0.16667 
0.16667 0.16667 0.16667 0.16667 0.16667 0.16667 0.16667 0.16667 0.16667 
0.16667 0.16667 0.16667 0.16667 0.16667 0.16667 0.16667 0.16667 0.16667 
0.16667 0.16667 0.16667 0.16667 0.16667 0.16667 0.16667 0.16667 0.16667 
0.16667 0.16667 0.16667 0.16667 0.16667 0.16667 0.16667 0.16667 0.16667 
0.16667 0.16667 0.16667 0.16667 0.16667 0.16667 0.16667 0.16667 0.16667 
0.16667 0.16667 0.16667 0.16667 0.16667 0.16667 0.16667 0.16667 0.16667 
0.16667 0.16667 0.16667 0.16667 0.16667 0.16667 0.16667 0.16667 0.16667 
0.16667 0.16667 0.16667 0.16667 0.16667 0.16667 0.16667 0.16667 0.16667 
0.16667 0.16667 0.16667 0.16667 0.16667 0.16667 0.16667 0.16667 0.16667 
0.16667 0.16667 0.16667 0.16667 0.16667 0.16667 0.16667 0.16667 0.16667 
0.16667 0.16667 0.16667 0.16667 0.16667 0.16667 0.16667 0.16667 0.16667 
0.16667 0.16667 0.16667 0.16667 0.16667 0.16667 0.16667 0.16667 0.16667 
0.16667 0.16667 0.16667 0.16667 0.16667 0.16667 0.16667 0.16667 0.16667 
0.16667 0.16667 0.16667 0.16667 0.16667 0.16667 0.16667 0.16667 0.16667 
0.16667 0.16667 0.16667 0.16667 0.16667 0.16667 0.16667 0.16667 0.16667 
0.16667 0.16667 0.16667 0.16667 0.16667 0.16667 0.16667 0.16667 0.16667 
0.16667 0.16667 0.16667 0.16667 0.16667 0.16667 0.16667 0.16667 0.16667 
0.16667 0.16667 0.16667 0.16667 0.16667 0.16667 0.16667 0.16667 0.16667 
0.16667 0.16667 0.16667 0.16667 0.16667 0.16667 0.16667 0.16667 0.16667 
0.16667 0.16667 0.16667 0.16667 0.16667 0.16667 0.16667 0.16667 0.16667 
0.16667 0.16667 0.16667 0.16667 0.16667 0.16667 0.16667 0.16667 0.16667 
0.16667 0.16667 0.16667 0.16667 0.16667 0.16667 0.16667 0.16667 0.16667 
0.16667 0.16667 0.16667 0.16667 0.16667 0.16667 0.16667 0.16667 0.16667 
0.16667 0.16667 0.16667 0.16667 0.16667 0.16667 0.16667 0.16667 0.16667 
0.16667 0.16667 0.16667 0.16667 0.16667 0.16667 0.16667 0.16667 0.16667 
0.16667 0.16667 0.16667 0.16667 0.16667 0.16667 0.16667 0.16667 0.16667 
0.16667 0.16667 0.16667 0.16667 0.16667 0.16667 0.16667 0.16667 0.16667 
0.16667 0.16667 0.16667 0.16667 0.16667 0.16667 0.16667 0.16667 0.16667 
0.16667 0.16667 0.16667 0.16667 0.16667 0.16667 0.16667 0.16667 0.16667 
0.16667 0.16667 0.16667 0.16667 0.16667 0.16667 0.16667 0.16667 0.16667 
0.16667 0.16667 0.16667 0.16667 0.16667 0.16667 0.16667 0.16667 0.16667 
0.16667 0.16667 0.16667 0.16667 0.16667 0.16667 0.16667 0.16667 0.16667 
0.16667 0.16667 0.16667 0.16667 0.16667 0.16667 0.16667 0.16667 0.16667 
0.16667 0.16667 0.16667 0.16667 0.16667 0.16667 0.16667 0.16667 0.16667 
0.16667 0.16667 0.16667 0.16667 0.16667 0.16667 0.16667 0.16667 0.16667 
0.16667 0.16667 0.16667 0.16667 0.16667 0.16667 0.16667 0.16667 0.16667 
0.16667 0.16667 0.16667 0.16667 0.16667 0.16667 0.16667 0.16667 0.16667 
0.16667 0.16667 0.16667 0.16667 0.16667 0.16667 0.16667 0.16667 0.16667 
0.16667 0.16667 0.16667 0.16667 0.16667 0.16667 0.16667 0.16667 0.16667 
0.16667 0.16667 0.16667 0.16667 0.16667 0.16667 0.16667 0.16667 0.16667 
0.16667 0.16667 0.16667 0.16667 0.16667 0.16667 0.16667 0.16667 0.16667 
0.16667 0.16667 0.16667 0.16667 0.16667 0.16667 0.16667 0.16667 0.16667 
0.16667 0.16667 0.16667 0.16667 0.16667 0.16667 0.16667 0.16667 0.16667 
0.16667 0.16667 0.16667 0.16667 0.16667 0.16667 0.16667 0.16667 0.16667 
0.16667 0.16667 0.16667 0.16667 0.16667 0.16667 0.16667 0.16667 0.16667 
0.16667 0.16667 0.16667 0.16667 0.16667 0.16667 0.16667 0.16667 0.16667 
0.16667 0.16667 0.16667 0.16667 0.16667 0.16667 0.16667 0.16667 0.16667 
0.16667 0.16667 0.16667 0.16667 0.16667 0.16667 0.16667 0.16667 0.16667 
0.16667 0.16667 0.16667 0.16667 0.16667 0.16667 0.16667 0.16667 0.16667 
0.16667 0.16667 0.16667 0.16667 0.16667 0.16667 0.16667 0.16667 0.16667 
0.16667 0.16667 0.16667 0.16667 0.16667 0.16667 0.16667 0.16667 0.16667 
0.16667 0.16667 0.16667 0.16667 0.16667 0.16667 0.16667 0.16667 0.16667 
0.16667 0.16667 0.16667 0.16667 0.16667 0.16667 0.16667 0.16667 0.16667 
0.16667 0.16667 0.16667 0.16667 0.16667 0.16667 0.16667 0.16667 0.16667 
0.16667 0.16667 0.16667 0.16667 0.16667 0.16667 0.16667 0.16667 0.16667 
0.16667 0.16667 0.16667 0.16667 0.16667 0.16667 0.16667 0.16667 0.16667 