# vtk DataFile Version 3.0
vtk output
ASCII
DATASET POLYDATA
POINTS 14860 float
55 47 3.87186 55 48 3.49758 55 49 3.66918 
54 50 3.65077 54 51 3.46663 53 52 3.51833 
54 52 3.50997 53 53 3.51607 54 53 3.57035 
53 54 3.50514 54 54 3.69675 53 55 3.65561 
53 37 4.63276 54 37 4.43217 55 37 4.6169 
56 37 4.63294 54 38 4.51969 55 38 4.35617 
56 38 4.34303 57 38 4.54092 55 39 4.33915 
56 39 4.29546 57 39 4.52795 58 39 4.90157 
55 40 4.50044 56 40 4.32152 57 40 4.4321 
58 40 4.56887 56 41 4.39752 57 41 4.34885 
58 41 4.46872 56 42 4.42755 57 42 4.34367 
58 42 4.42965 55 43 4.74887 56 43 4.46678 
57 43 4.35862 58 43 4.43006 55 44 4.39235 
56 44 4.42682 57 44 4.3621 58 44 4.47939 
55 45 4.46035 56 45 4.33097 57 45 4.23437 
58 45 4.60157 54 46 4.53692 55 46.795 4 
55 46 4.17614 56 46 4.01107 57 46 4.22247 
54.8368 47 4 54 47 4.24848 55.3581 47 4 
56 47 4.08059 53 48 4.58171 54.3165 48 4 
54 48 4.14305 55.6168 48 4 56 48 4.19558 
53 49 4.47396 54.1719 49 4 54 49.1605 4 
54 49 4.03298 55.343 49 4 55 49.6253 4 
56 49 4.30262 53.5664 50 4 53 50 4.23466 
54.6443 50 4 55 50 4.08898 53.2874 51 4 
53 51.3316 4 53 51 4.14937 54.695 51 4 
55 51 4.16263 52.4563 52 4 52 52 4.27208 
54.617 52 4 55 52 4.20306 52.2928 53 4 
52 53 4.13828 54.5132 53 4 55 53 4.248 
52.3287 54 4 52 54 4.15628 54.3144 54 4 
54 54.3787 4 55 54 4.33196 52.6462 55 4 
52 55 4.26894 53.4238 55 4 53 55.4296 4 
54 55 4.21744 52 56 4.28088 53 56 4.17587 
54 56 4.26074 52 57 4.28035 53 57 4.32717 
54 57 4.34899 52 58 4.39494 53 58 4.40176 
54 58 4.43594 52 59 4.42254 53 59 4.54678 
54 59 4.9646 55 32 5.73172 53 33 5.53335 
54 33 5.54746 55 33 5.94765 42 34 5.56691 
43 34 5.48022 44 34 5.38959 45 34 5.40137 
46 34 5.42302 47 34 5.44809 48 34 5.41837 
49 34 5.37588 50 34 5.4111 51 34 5.48537 
52 34 5.60348 54 34 5.81153 42 35 5.99409 
43 35 5.50874 44 35 5.39746 45 35 5.38434 
46 35 5.37654 47 35 5.35012 48 35 5.3342 
49 35 5.30632 50 35 5.28356 51 35 5.33788 
52 35 5.53935 53 35 5.93233 43 36 5.55421 
44 36 5.48679 45 36 5.43789 46 36 5.39371 
47 36 5.27908 48 36 5.24265 49 36 5.24351 
50 36 5.22458 51 36 5.25341 52 36 5.1649 
53 36.3666 5 53 36 5.19144 54 36.0721 5 
54 36 5.09842 55 36.6169 5 56 36.6329 5 
56 36 5.76369 52.6328 37 5 52 37 5.39191 
53 37.421 5 56.3931 37 5 57 37.5134 5 
57 37 5.24261 53.4634 38 5 53 38 5.50733 
54 38.7267 5 57.4591 38 5 58 38.9016 5 
58 38 5.46237 54.1514 39 5 54 39 5.20153 
58.1272 39 5 59 39 5.33518 54.5004 40 5 
54 40 5.86275 55 40.712 5 58.845 40 5 
59 40 5.07797 55.2104 41 5 55 41 5.12493 
58.6355 41 5 59 41 5.51164 55.3496 42 5 
55 42.6821 5 55 42 5.23979 58.5884 42 5 
54.7489 43 5 58.582 43 5 59 43 5.91068 
54.3924 44 5 58.5517 44 5 54.2914 45 5 
54 45.3586 5 54 45 5.37724 58.415 45 5 
58 45.453 5 53.5369 46 5 57.7394 46 5 
57 46.9393 5 53.2511 47 5 53 47.5153 5 
53 47 5.91175 56.9535 47 5 57 47 5.0532 
52.5817 48 5 56.7319 48 5 57 48 5.63386 
52.474 49 5 56.6858 49 5 56 49.856 5 
52.3043 50 5 55.8921 50 5 56 50 5.13161 
52.1677 51 5 52 51.2022 5 52 51 5.40093 
55.7838 51 5 56 51 5.61515 51.324 52 5 
55.7317 52 5 51.2924 53 5 55.6842 53 5 
51.2466 54 5 51 54 5.9803 55.6564 54 5 
55 54.7653 5 51.2637 55 5 51 55 5.57207 
54.8144 55 5 55 55 5.23159 51.2657 56 5 
51 56 5.41196 54.8138 56 5 55 56 5.27784 
51.1759 57 5 51 57 5.33902 54.7554 57 5 
55 57 5.31772 51.2867 58 5 51 58 5.31104 
54.5641 58 5 55 58 5.34845 51.3672 59 5 
51 59 5.33763 52 59.5775 5 53 59.7988 5 
54.0354 59 5 54 59.0354 5 51 60 5.56401 
52 60 5.29171 53 60 5.08241 54 60 5.86522 
51 61 5.45544 52 61 5.37813 51 62 5.87742 
56 29 6.59179 57 29 6.82559 55 30 6.41762 
56 30 6.35808 57 30 6.40831 54 31 6.82424 
55 31.7317 6 55 31 6.32051 56 31 6.28393 
57 31 6.37586 38 32 6.96291 39 32 6.51028 
40 32 6.39145 41 32 6.4622 53 32.4646 6 
53 32 6.68689 54.0006 32 6 54 32.0003 6 
54 32 6.00006 55.3512 32 6 56 32 6.17616 
57 32 6.47839 38 33 6.95404 39 33 6.43992 
40 33 6.24037 41 33 6.17128 42 33.3326 6 
42 33 6.11208 43 33.1516 6 43 33 6.07012 
44 33.1054 6 44 33 6.06743 45 33.1827 6 
45 33 6.11491 46 33.3349 6 46 33 6.28653 
47 33.4014 6 47 33 6.43151 48 33.388 6 
48 33 6.69127 49 33.3627 6 49 33 6.5634 
50 33.3999 6 51 33.4854 6 52.5334 33 6 
52 33.6035 6 53 33.9511 6 55.0524 33 6 
55 33.5231 6 56 33 6.38762 40 34 6.29227 
41.2124 34 6 41 34 6.05757 52.9359 34 6 
53.1624 34 6 53 34.3828 6 53 34 6.02513 
54.8218 34 6 54 34.2492 6 55 34 6.0278 
56 34 6.68263 40 35 6.70806 41.9941 35 6 
41 35 6.3396 42 35.0059 6 53.094 35 6 
54 35.428 6 54 35 6.46781 55 35 6.95596 
56 35.3969 6 56 35 6.54523 42.5542 36 6 
42 36 6.34539 43 36.4458 6 44 36.61 6 
45 36.7662 6 46 36.7418 6 47 36.9163 6 
48 36.9521 6 49 36.8197 6 50 36.8105 6 
51 36.8233 6 54.6376 36 6 54 36 6.76927 
55.632 36 6 55 36.1669 6 56.4139 36 6 
57 36.1355 6 57 36 6.46521 43 37 6.50509 
44 37 6.55527 45 37 6.49362 46 37 6.26962 
47 37 6.1088 48 37 6.05359 49 37 6.40198 
50 37 6.41182 51.2895 37 6 51 37 6.31289 
52 37.6081 6 57.8721 37 6 58 37.2606 6 
52.5634 38 6 53 38.4366 6 53 38 6.44158 
58.6322 38 6 59 38.3129 6 53.4207 39 6 
54 39 6.85799 59.5977 39 6 59 39 6.68867 
53.8628 40 6 54 40.1372 6 54 40 6.1379 
59.6308 40 6 59 40 6.96309 54.2612 41 6 
59.3829 41 6 59 41.9361 6 59 41 6.56159 
54.3048 42 6 58.9878 42 6 59 42.3121 6 
54.0999 43 6 59.0854 43 6 59 43.1176 6 
59 43 6.08539 54.3043 44 6 54 44.5568 6 
55 44 6.87336 58.8205 44 6 58 44 6.92095 
53.5568 45 6 54 45 6.4792 58.6558 45 6 
58 45.7606 6 58 45 6.69404 53.3124 46 6 
53 46.9311 6 54 46 6.81995 57.8241 46 6 
57 46 6.93764 52.9311 47 6 53 47 6.0689 
57.7231 47 6 57 47 6.8266 52.3161 48 6 
53 48 6.75663 57.3532 48 6 57 48.3532 6 
57 48 6.35321 52.2811 49 6 53 49 6.89147 
56.734 49 6 56 49 6.96192 52.0392 50 6 
52 50.1273 6 56.7078 50 6 56 50 6.7864 
51.5585 51 6 52 51 6.47807 56.3083 51 6 
56 51.8179 6 56 51 6.33775 51.2807 52 6 
52 52 6.77212 55.9632 52 6 51.2601 53 6 
51 53.9833 6 52 53 6.86002 55.716 53 6 
55 53 6.83368 50.9833 54 6 51 54 6.01675 
55.7977 54 6 50.5886 55 6 51 55 6.42811 
55.6603 55 6 55 55 6.74125 50.4306 56 6 
51 56 6.67307 55.57 56 6 55 56 6.61641 
50.4835 57 6 51 57 6.71262 55.6154 57 6 
50.4231 58 6 55.6908 58 6 55 58.6516 6 
50.3913 59 6 54.6974 59 6 50.564 60 6 
50 60 6.98985 53 60.727 6 54.1348 60 6 
54 60.1348 6 37 61 6.80716 50.2887 61 6 
50 61 6.13569 52.6532 61 6 52 61.6219 6 
53 61 6.23718 38 62 6.91132 49 62 6.57173 
50.7497 62 6 50 62 6.11258 51.1226 62 6 
51 62.1226 6 52 62 6.33841 38 63 6.89091 
39 63 6.68116 49 63 6.37325 50 63 6.30096 
51 63 6.3298 40 64 6.57964 47 64 6.88249 
48 64 6.53578 49 64 6.38365 50 64 6.45837 
42 65 6.98167 43 65 6.56196 44 65 6.5426 
48 65 6.69251 49 65 6.634 57 26 7.48828 
58 26 7.84911 56 27 7.46127 57 27 7.35068 
58 27 7.59506 59 27 7.7549 55 28 7.49855 
56 28.5918 7 56 28 7.26324 57 28.8117 7 
57 28 7.22419 58 28 7.31615 55.5331 29 7 
55 29.3609 7 55 29 7.23618 57.2523 29 7 
58 29 7.19637 54.4176 30 7 54 30.8242 7 
54 30 7.69576 57.7084 30 7 58 30 7.16968 
36 31 7.54548 37 31 7.37559 38 31.9516 7 
38 31 7.21276 39 31.3696 7 39 31 7.17639 
40 31.3427 7 40 31 7.26173 41 31.4622 7 
41 31 7.90176 53.8242 31 7 53 31.7429 7 
57.6995 31 7 58 31 7.30292 36 32 7.47792 
37.9629 32 7 37 32 7.25508 41.8157 32 7 
42 32.0802 7 42 32 7.10943 43 32.2148 7 
43 32 7.9619 44 32.2793 7 45 32.2575 7 
46 32.369 7 47 32.4789 7 48 32.7176 7 
49 32.5772 7 52.7429 32 7 53 32 7.25712 
57.5323 32 7 57 32.5216 7 58 32 7.81368 
37.954 33 7 37 33 7.52981 38 33.046 7 
39 33.8564 7 46 33 7.90391 47 33 7.6686 
48 33 7.31989 49.5 33 7 49 33 7.42278 
50 33.1986 7 51 33.1951 7 52.088 33 7 
52 33.1205 7 56.6124 33 7 38 34 7.68514 
39.081 34 7 39 34 7.07785 56.3174 34 7 
56 34 7.76986 39.7081 35 7 40 35.2919 7 
41 35.8014 7 54 35.7395 7 55 35.0793 7 
55 35 7.04893 56.1452 35 7 56 35 7.14522 
57 35.665 7 41.2028 36 7 41 36 7.40312 
42 36.668 7 53.8354 36 7 54 36.4289 7 
55.3198 36 7 55 36.2558 7 56 36 7.80762 
57.335 36 7 57 36 7.33495 42.4901 37 7 
43 37.4949 7 43 37 7.631 44 37.3506 7 
44 37 7.53396 45 37.2867 7 45 37 7.32342 
46 37.5921 7 46 37 7.66823 47 37.6589 7 
47 37 7.8096 48 37.6991 7 48 37 7.75825 
49 37.4668 7 49 37 7.52329 50 37.4829 7 
50 37 7.54004 51 37.5813 7 51 37 7.68591 
52 37.6522 7 52 37 7.74642 53 37.3991 7 
53 37 7.71634 54 37 7.54175 55 37 7.69154 
56 37 7.94346 57.7691 37 7 57 37 7.60798 
58 37.4016 7 53.322 38 7 54 38.9005 7 
54 38 7.76209 55 38 7.97281 57 38 7.84749 
58.4097 38 7 58 38 7.40966 54.1046 39 7 
55 39 7.6611 57 39 7.85061 58.3184 39 7 
58 39 7.2388 54.3757 40 7 55 40 7.62297 
56 40 7.68938 57 40 7.87838 58.9685 40 7 
58 40 7.71971 54.4751 41 7 55 41 7.52488 
56 41 7.66547 57 41 7.94916 58.8288 41 7 
58 41 7.81165 54.5036 42 7 55 42 7.49644 
56 42 7.65627 57 42 7.70508 58.7227 42 7 
58 42 7.77784 54.5081 43 7 55 43.7449 7 
55 43 7.49192 56 43 7.63451 57 43 7.68558 
58.6052 43 7 58 43.8479 7 58 43 7.60521 
55.1685 44 7 55 44.2404 7 56 44 7.62068 
57.8733 44 7 57 44 7.65455 54.4523 45 7 
55 45 7.51158 56 45 7.61575 57.5051 45 7 
57 45.821 7 57 45 7.46157 54.2719 46 7 
54 46.3235 7 55 46 7.56409 56.8862 46 7 
56 46 7.59283 53.4974 47 7 54 47 7.50256 
55 47 7.64173 56.7297 47 7 56 47 7.59662 
53.3141 48 7 54 48 7.60314 55 48 7.69423 
56.5686 48 7 56 48.9235 7 56 48 7.56864 
53.1461 49 7 53 49.2536 7 54 49 7.64545 
55.9493 49 7 55 49 7.6714 52.5218 50 7 
53 50 7.4782 54 50 7.6695 55.7084 50 7 
55 50 7.61515 52.4349 51 7 53 51 7.52856 
54 51 7.66664 55.5366 51 7 55 51 7.50292 
52.3644 52 7 53 52 7.5688 54 52 7.72209 
55.4302 52 7 55 52.6001 7 55 52 7.43016 
52.2432 53 7 52 53.3399 7 53 53 7.59029 
54.7255 53 7 54 53 7.57074 55 53.552 7 
51.5265 54 7 52 54 7.47346 53 54 7.63277 
54 54 7.55061 55.29 54 7 55 54.3757 7 
55 54 7.28995 51.2906 55 7 52 55 7.69498 
53 55 7.74556 54.7659 55 7 54 55 7.68949 
51.2093 56 7 52 56 7.73332 53 56 7.96822 
54.7473 56 7 54 56 7.72847 55 56.3814 7 
32 57 7.52708 33 57 7.50363 34 57 7.57954 
51.1393 57 7 51 57.285 7 52 57 7.81546 
55.6904 57 7 55 57 7.60784 32 58 7.52149 
33 58 7.39912 34 58 7.37793 35 58 7.55857 
50.4806 58 7 51 58 7.51941 55.5404 58 7 
[...]
POINT_DATA 14860
SCALARS scalars float
LOOKUP_TABLE default
0.16667 0.16667 0.16667 0.16667 0.16667 0.16667 0.16667 0.16667 0.16667 
0.16667 0.16667 0.16667 0.16667 0.16667 0.16667 0.16667 0.16667 0.16667 
0.16667 0.16667 0.16667 0.16667 0.16667 0.16667 0.16667 0.16667 0.16667 
0.16667 0.16667 0.16667 0.16667 0.16667 0.16667 0.16667 0.16667 0.16667 
0.16667 0.16667 0.16667 0.16667 0.16667 0.16667 0.16667 0.16667 0.16667 
0.16667 0.16667 0.16667 0.16667 0.16667 0.16667 0.16667 0.16667 0.16667 
0.16667 0.16667 0.16667 0.16667 0.16667 0.16667 0.16667 0.16667 0.16667 
0.16667 0.16667 0.16667 0.16667 0.16667 0.16667 0.16667 0.16667 0.16667 
0.16667 0.16667 0.16667 0.16667 0.16667 0.16667 0.16667 0.16667 0.16667 
0.16667 0.16667 0.16667 0.16667 0.16667 0.16667 0.16667 0.16667 0.16667 
0.16667 0.16667 0.16667 0.16667 0.16667 0.16667 0.16667 0.16667 0.16667 
0.16667 0.16667 0.16667 0.16667 0.16667 0.16667 0.16667 0.16667 0.16667 
0.16667 0.16667 0.16667 0.16667 0.16667 0.16667 0.16667 0.16667 0.16667 
0.16667 0.16667 0.16667 0.16667 0.16667 0.16667 0.16667 0.16667 0.16667 
0.16667 0.16667 0.16667 0.16667 0.16667 0.16667 0.16667 0.16667 0.16667 
0.16667 0.16667 0.16667 0.16667 0.16667 0.16667 0.16667 0.16667 0.16667 
0.16667 0.16667 0.16667 0.16667 0.16667 0.16667 0.16667 0.16667 0.16667 
0.16667 0.16667 0.16667 0.16667 0.16667 0.16667 0.16667 0.16667 0.16667 
0.16667 0.16667 0.16667 0.16667 0.16667 0.16667 0.16667 0.16667 0.16667 
0.16667 0.16667 0.16667 0.16667 0.16667 0.16667 0.16667 0.16667 0.16667 
0.16667 0.16667 0.16667 0.16667 0.16667 0.16667 0.16667 0.16667 0.16667 
0.16667 0.16667 0.16667 0.16667 0.16667 0.16667 0.16667 0.16667 0.16667 
0.16667 0.16667 0.16667 0.16667 0.16667 0.16667 0.16667 0.16667 0.16667 
0.16667 0.16667 0.16667 0.16667 0.16667 0.16667 0.16667 0.16667 0.16667 
0.16667 0.16667 0.16667 0.16667 0.16667 0.16667 0.16667 0.16667 0.16667 
0.16667 0.16667 0.16667 0.16667 0.16667 0.16667 0.16667 0.16667 0.16667 
0.16667 0.16667 0.16667 0.16667 0.16667 0.16667 0.16667 0.16667 0.16667 
0.16667 0.16667 0.16667 0.16667 0.16667 0.16667 0.16667 0.16667 0.16667 
0.16667 0.16667 0.16667 0.16667 0.16667 0.16667 0.16667 0.16667 0.16667 
0.16667 0.16667 0.16667 0.16667 0.16667 0.16667 0.16667 0.16667 0.16667 
0.16667 0.16667 0.16667 0.16667 0.16667 0.16667 0.16667 0.16667 0.16667 
0.16667 0.16667 0.16667 0.16667 0.16667 0.16667 0.16667 0.16667 0.16667 
0.16667 0.16667 0.16667 0.16667 0.16667 0.16667 0.16667 0.16667 0.16667 
0.16667 0.16667 0.16667 0.16667 0.16667 0.16667 0.16667 0.16667 0.16667 
0.16667 0.16667 0.16667 0.16667 0.16667 0.16667 0.16667 0.16667 0.16667 
0.16667 0.16667 0.16667 0.16667 0.16667 0.16667 0.16667 0.16667 0.16667 
0.16667 0.16667 0.16667 0.16667 0.16667 0.16667 0.16667 0.16667 0.16667 
0.16667 0.16667 0.16667 0.16667 0.16667 0.16667 0.16667 0.16667 0.16667 
0.16667 0.16667 0.16667 0.16667 0.16667 0.16667 0.16667 0.16667 0.16667 
0.16667 0.16667 0.16667 0.16667 0.16667 0.16667 0.16667 0.16667 0.16667 
0.16667 0.16667 0.16667 0.16667 0.16667 0.16667 0.16667 0.16667 0.16667 
0.16667 0.16667 0.16667 0.16667 0.16667 0.16667 0.16667 0.16667 0.16667 
0.16667 0.16667 0.16667 0.16667 0.16667 0.16667 0.16667 0.16667 0.16667 
0.16667 0.16667 0.16667 0.16667 0.16667 0.16667 0.16667 0.16667 0.16667 
0.16667 0.16667 0.16667 0.16667 0.16667 0.16667 0.16667 0.16667 0.16667 
0.16667 0.16667 0.16667 0.16667 0.16667 0.16667 0.16667 0.16667 0.16667 
0.16667 0.16667 0.16667 0.16667 0.16667 0.16667 0.16667 0.16667 0.16667 
0.16667 0.16667 0.16667 0.16667 0.16667 0.16667 0.16667 0.16667 0.16667 
0.16667 0.16667 0.16667 0.16667 0.16667 0.16667 0.16667 0.16667 0.16667 
0.16667 0.16667 0.16667 0.16667 0.16667 0.16667 0.16667 0.16667 0.16667 
0.16667 0.16667 0.16667 0.16667 0.16667 0.16667 0.16667 0.16667 0.16667 
0.16667 0.16667 0.16667 0.16667 0.16667 0.16667 0.16667 0.16667 0.16667 
0.16667 0.16667 0.16667 0.16667 0.16667 0.16667 0.16667 0.16667 0.16667 
0.16667 0.16667 0.16667 0.16667 0.16667 0.16667 0.16667 0.16667 0.16667 
0.16667 0.16667 0.16667 0.16667 0.16667 0.16667 0.16667 0.16667 0.16667 
0.16667 0.16667 0.16667 0.16667 0.16667 0.16667 0.16667 0.16667 0.16667 
0.16667 0.16667 0.16667 0.16667 0.16667 0.16667 0.16667 0.16667 0.16667 
0.16667 0.16667 0.16667 0.16667 0.16667 0.16667 0.16667 0.16667 0.16667 
0.16667 0.16667 0.16667 0.16667 0.16667 0.16667 0.16667 0.16667 0.16667 
0.16667 0.16667 0.16667 0.16667 0.16667 0.16667 0.16667 0.16667 0.16667 
0.16667 0.16667 0.16667 0.16667 0.16667 0.16667 0.16667 0.16667 0.16667 
0.16667 0.16667 0.16667 0.16667 0.16667 0.16667 0.16667 0.16667 0.16667 
0.16667 0.16667 0.16667 0.16667 0.16667 0.16667 0.16667 0.16667 0.16667 
0.16667 0.16667 0.16667 0.16667 0.16667 0.16667 0.16667 0.16667 0.16667 
0.16667 0.16667 0.16667 0.16667 0.16667 0.16667 0.16667 0.16667 0.16667 
0.16667 0.16667 0.16667 0.16667 0.16667 0.16667 0.16667 0.16667 0.16667 
0.16667 0.16667 0.16667 0.16667 0.16667 0.16667 0.16667 0.16667 0.16667 
0.16667 0.16667 0.16667 0.16667 0.16667 0.16667 0.16667 0.16667 0.16667 
0.16667 0.16667 0.16667 0.16667 0.16667 0.16667 0.16667 0.16667 0.16667 
0.16667 0.16667 0.16667 0.16667 0.16667 0.16667 0.16667 0.16667 0.16667 
0.16667 0.16667 0.16667 0.16667 0.16667 0.16667 0.16667 0.16667 0.16667 
0.16667 0.16667 0.16667 0.16667 0.16667 0.16667 0.16667 0.16667 0.16667 
0.16667 0.16667 0.16667 0.16667 0.16667 0.16667 0.16667 0.16667 0.16667 
0.16667 0.16667 0.16667 0.16667 0.16667 0.16667 0.16667 0.16667 0.16667 
0.16667 0.16667 0.16667 0.16667 0.16667 0.16667 0.16667 0.16667 0.16667 
0.16667 0.16667 0.16667 0.16667 0.16667 0.16667 0.16667 0.16667 0.16667 
0.16667 0.16667 0.16667 0.16667 0.16667 0.16667 0.16667 0.16667 0.16667 
0.16667 0.16667 0.16667 0.16667 0.16667 0.16667 0.16667 0.16667 0.16667 
0.16667 0.16667 0.16667 0.16667 0.16667 0.16667 0.16667 0.16667 0.16667 
0.16667 0.16667 0.16667 0.16667 0.16667 0.16667 0.16667 0.16667 0.16667 
0.16667 0.16667 0.16667 0.16667 0.16667 0.16667 0.16667 0.16667 0.16667 
0.16667 0.16667 0.16667 0.16667 0.16667 0.16667 0.16667 0.16667 0.16667 
0.16667 0.16667 0.16667 0.16667 0.16667 0.16667 0.16667 0.16667 0.16667 
0.16667 0.16667 0.16667 0.16667 0.16667 0.16667 0.16667 0.16667 0.16667 
0.16667 0.16667 0.16667 0.16667 0.16667 0.16667 0.16667 0.16667 0.16667 
0.16667 0.16667 0.16667 0.16667 0.16667 0.16667 0.16667 0.16667 0.16667 
0.16667 0.16667 0.16667 0.16667 0.16667 0.16667 0.16667 0.16667 0.16667 
0.16667 0.16667 0.16667 0.16667 0.16667 0.16667 0.16667 0.16667 0.16667 
0.16667 0.16667 0.16667 0.16667 0.16667 0.16667 0.16667 0.16667 0.16667 
0.16667 0.16667 0.16667 0.16667 0.16667 0.16667 0.16667 0.16667 0.16667 
0.16667 0.16667 0.16667 0.16667 0.16667 0.16667 0.16667 0.16667 0.16667 
0.16667 0.16667 0.16667 0.16667 0.16667 0.16667 0.16667 0.16667 0.16667 
0.16667 0.16667 0.16667 0.16667 0.16667 0.16667 0.16667 0.16667 0.16667 
0.16667 0.16667 0.16667 0.16667 0.16667 0.16667 0.16667 0.16667 0.16667 
0.16667 0.16667 0.16667 0.16667 0.16667 0.16667 0.16667 0.16667 0.16667 
0.16667 0.16667 0.16667 0.16667 0.16667 0.16667 0.16667 0.16667 0.16667 
0.16667 0.16667 0.16667 0.16667 0.16667 0.16667 0.16667 0.16667 0.16667 
0.16667 0.16667 0.16667 0.16667 0.16667 0.16667 0.16667 0.16667 0.16667 
0.16667 0.16667 0.16667 0.16667 0.16667 0.16667 0.16667 0.16667 0.16667 
0.16667 0.16667 0.16667 0.16667 0.16667 0.16667 0.16667 0.16667 0.16667 
0.16667 0.16667 0.16667 0.16667 0.16667 0.16667 0.16667 0.16667 0.16667 
0.16667 0.16667 0.16667 0.16667 0.16667 0.16667 0.16667 0.16667 0.16667 
0.16667 0.16667 0.16667 0.16667 0.16667 0.16667 0.16667 0.16667 0.16667 
0.16667 0.16667 0.16667 0.16667 0.16667 0.16667 0.16667 0.16667 0.16667 
0.16667 0.16667 0.16667 0.16667 0.16667 0.16667 0.16667 0.16667 0.16667 
0.16667 0.16667 0.16667 0.16667 0.16667 0.16667 0.16667 0.16667 0.16667 
0.16667 0.16667 0.16667 0.16667 0.16667 0.16667 0.16667 0.16667 0.16667 
0.16667 0.16667 0.16667 0.16667 0.16667 0.16667 0.16667 0.16667 0.16667 
0.16667 0.16667 0.16667 0.16667 0.16667 0.16667 0.16667 0.16667 0.16667 
0.16667 0.16667 0.16667 0.16667 0.16667 0.16667 0.16667 0.16667 0.16667 
0.16667 0.16667 0.16667 0.16667 0.16667 0.16667 0.16667 0.16667 0.16667 
0.16667 0.16667 0.16667 0.16667 0.16667 0.16667 0.16667 0.16667 0.16667 
0.16667 0.16667 0.16667 0.16667 0.16667 0.16667 0.16667 0.16667 0.16667 
0.16667 0.16667 0.16667 0.16667 0.16667 0.16667 0.16667 0.16667 0.16667 
0.16667 0.16667 0.16667 0.16667 0.16667 0.16667 0.16667 0.16667 0.16667 
0.16667 0.16667 0.16667 0.16667 0.16667 0.16667 0.16667 0.16667 0.16667 
0.16667 0.16667 0.16667 0.16667 0.16667 0.16667 0.16667 0.16667 0.16667 
0.16667 0.16667 0.16667 0.16667 0.16667 0.16667 0.16667 0.16667 0.16667 
0.16667 0.16667 0.16667 0.16667 0.16667 0.16667 0.16667 0.16667 0.16667 
0.16667 0.16667 0.16667 0.16667 0.16667 0.16667 0.16667 0.16667 0.16667 
0.16667 0.16667 0.16667 0.16667 0.16667 0.16667 0.16667 0.16667 0.16667 
0.16667 0.16667 0.16667 0.16667 0.16667 0.16667 0.16667 0.16667 0.16667 
0.16667 0.16667 0.16667 0.16667 0.16667 0.16667 0.16667 0.16667 0.16667 
0.16667 0.16667 0.16667 0.16667 0.16667 0.16667 0.16667 0.16667 0.16667 
0.16667 0.16667 0.16667 0.16667 0.16667 0.16667 0.16667 0.16667 0.16667 
0.16667 0.16667 0.16667 0.16667 0.16667 0.16667 0.16667 0.16667 0.16667 
0.16667 0.16667 0.16667 0.16667 0.16667 0.16667 0.16667 0.16667 0.16667 
0.16667 0.16667 0.16667 0.16667 0.16667 0.16667 0.16667 0.16667 0.16667 
0.16667 0.16667 0.16667 0.16667 0.16667 0.16667 0.16667 0.16667 0.16667 
0.16667 0.16667 0.16667 0.16667 0.16667 0.16667 0.16667 0.16667 0.16667 
0.16667 0.16667 0.16667 0.16667 0.16667 0.16667 0.16667 0.16667 0.16667 
0.16667 0.16667 0.16667 0.16667 0.16667 0.16667 0.16667 0.16667 0.16667 
0.16667 0.16667 0.16667 0.16667 0.16667 0.16667 0.16667 0.16667 0.16667 
0.16667 0.16667 0.16667 0.16667 0.16667 0.16667 0.16667 0.16667 0.16667 
0.16667 0.16667 0.16667 0.16667 0.16667 0.16667 0.16667 0.16667 0.16667 
0.16667 0.16667 0.16667 0.16667 0.16667 0.16667 0.16667 0.16667 0.16667 
0.16667 0.16667 0.16667 0.16667 0.16667 0.16667 0.16667 0.16667 0.16667 
0.16667 0.16667 0.16667 0.16667 0.16667 0.16667 0.16667 0.16667 0.16667 
0.16667 0.16667 0.16667 0.16667 0.16667 0.16667 0.16667 0.16667 0.16667 
0.16667 0.16667 0.16667 0.16667 0.16667 0.16667 0.16667 0.16667 0.16667 
0.16667 0.16667 0.16667 0.16667 0.16667 0.16667 0.16667 0.16667 0.16667 
0.16667 0.16667 0.16667 0.16667 0.16667 0.16667 0.16667 0.16667 0.16667 
0.16667 0.16667 0.16667 0.16667 0.16667 0.16667 0.16667 0.16667 0.16667 
0.16667 0.16667 0.16667 0.16667 0.16667 0.16667 0.16667 0.16667 0.16667 
0.16667 0.16667 0.16667 0.16667 0.16667 0.16667 0.16667 0.16667 0.16667 
0.16667 0.16667 0.16667 0.16667 0.16667 0.16667 0.16667 0.16667 0.16667 
0.16667 0.16667 0.16667 0.16667 0.16667 0.16667 0.16667 0.16667 0.16667 
0.16667 0.16667 0.16667 0.16667 0.16667 0.16667 0.16667 0.16667 0.16667 
0.16667 0.16667 0.16667 0.16667 0.16667 0.16667 0.16667 0.16667 0.16667 
0.16667 0.16667 0.16667 0.16667 0.16667 0.16667 0.16667 0.16667 0.16667 
0.16667 0.16667 0.16667 0.16667 0.16667 0.16667 0.16667 0.16667 0.16667 
0.16667 0.16667 0.16667 0.16667 0.16667 0.16667 0.16667 0.16667 0.16667 
0.16667 0.16667 0.16667 0.16667 0.16667 0.16667 0.16667 0.16667 0.16667 
0.16667 0.16667 0.16667 0.16667 0.16667 0.16667 0.16667 0.16667 0.16667 
0.16667 0.16667 0.16667 0.16667 0.16667 0.16667 0.16667 0.16667 0.16667 
0.16667 0.16667 0.16667 0.16667 0.16667 0.16667 0.16667 0.16667 0.16667 
0.16667 0.16667 0.16667 0.16667 0.16667 0.16667 0.16667 0.16667 0.16667 
0.16667 0.16667 0.16667 0.16667 0.16667 0.16667 0.16667 0.16667 0.16667 
0.16667 0.16667 0.16667 0.16667 0.16667 0.16667 0.16667 0.16667 0.16667 
0.16667 0.16667 0.16667 0.16667 0.16667 0.16667 0.16667 0.16667 0.16667 
0.16667 0.16667 0.16667 0.16667 0.16667 0.16667 0.16667 0.16667 0.16667 
0.16667 0.16667 0.16667 0.16667 0.16667 0.16667 0.16667 0.16667 0.16667 
0.16667 0.16667 0.16667 0.16667 0.16667 0.16667 0.16667 0.16667 0.16667 
0.16667 0.16667 0.16667 0.16667 0.16667 0.16667 0.16667 0.16667 0.16667 
0.16667 0.16667 0.16667 0.16667 0.16667 0.16667 0.16667 0.16667 0.16667 
0.16667 0.16667 0.16667 0.16667 0.16667 0.16667 0.16667 0.16667 0.16667 
0.16667 0.16667 0.16667 0.16667 0.16667 0.16667 0.16667 0.16667 0.16667 
0.16667 0.16667 0.16667 0.16667 0.16667 0.16667 0.16667 0.16667 0.16667 
0.16667 0.16667 0.16667 0.16667 0.16667 0.16667 0.16667 0.16667 0.16667 
0.16667 0.16667 0.16667 0.16667 0.16667 0.16667 0.16667 0.16667 0.16667 
0.16667 0.16667 0.16667 0.16667 0.16667 0.16667 0.16667 0.16667 0.16667 
0.16667 0.16667 0.16667 0.16667 0.16667 0.16667 0.16667 0.16667 0.16667 
0.16667 0.16667 0.16667 0.16667 0.16667 0.16667 0.16667 0.16667 0.16667 
0.16667 0.16667 0.16667 0.16667 0.16667 0.16667 0.16667 0.16667 0.16667 
0.16667 0.16667 0.16667 0.16667 0.16667 0.16667 0.16667 0.16667 0.16667 
0.16667 0.16667 0.16667 0.16667 0.16667 0.16667 0.16667 0.16667 0.16667 
0.16667 0.16667 0.16667 0.16667 0.16667 0.16667 0.16667 0.16667 0.16667 
0.16667 0.16667 0.16667 0.16667 0.16667 0.16667 0.16667 0.16667 0.16667 
0.16667 0.16667 0.16667 0.16667 0.16667 0.16667 0.16667 0.16667 0.16667 
0.16667 0.16667 0.16667 0.16667 0.16667 0.16667 0.16667 0.16667 0.16667 
0.16667 0.16667 0.16667 0.16667 0.16667 0.16667 0.16667 0.16667 0.16667 
0.16667 0.16667 0.16667 0.16667 0.16667 0.16667 0.16667 0.16667 0.16667 
0.16667 0.16667 0.16667 0.16667 0.16667 0.16667 0.16667 0.16667 0.16667 
0.16667 0.16667 0.16667 0.16667 0.16667 0.16667 0.16667 0.16667 0.16667 
0.16667 0.16667 0.16667 0.16667 0.16667 0.16667 0.16667 0.16667 0.16667 
0.16667 0.16667 0.16667 0.16667 0.16667 0.16667 0.16667 0.16667 0.16667 
0.16667 0.16667 0.16667 0.16667 0.16667 0.16667 0.16667 0.16667 0.16667 
0.16667 0.16667 0.16667 0.16667 0.16667 0.16667 0.16667 0.16667 0.16667 
0.16667 0.16667 0.16667 0.16667 0.16667 0.16667 0.16667 0.16667 0.16667 
0.16667 0.16667 0.16667 0.16667 0.16667 0.16667 0.16667 0.16667 0.16667 
0.16667 0.16667 0.16667 0.16667 0.16667 0.16667 0.16667 0.16667 0.16667 
0.16667 0.16667 0.16667 0.16667 0.16667 0.16667 0.16667 0.16667 0.16667 
0.16667 0.16667 0.16667 0.16667 0.16667 0.16667 0.16667 0.16667 0.16667 
0.16667 0.16667 0.16667 0.16667 0.16667 0.16667 0.16667 0.16667 0.16667 
0.16667 0.16667 0.16667 0.16667 0.16667 0.16667 0.16667 0.16667 0.16667 
0.16667 0.16667 0.16667 0.16667 0.16667 0.16667 0.16667 0.16667 0.16667 
0.16667 0.16667 0.16667 0.16667 0.16667 0.16667 0.16667 0.16667 0.16667 
0.16667 0.16667 0.16667 0.16667 0.16667 0.16667 0.16667 0.16667 0.16667 
0.16667 0.16667 0.16667 0.16667 0.16667 0.16667 0.16667 0.16667 0.16667 
0.16667 0.16667 0.16667 0.16667 0.16667 0.16667 0.16667 0.16667 0.16667 
0.16667 0.16667 0.16667 0.16667 0.16667 0.16667 0.16667 0.16667 0.16667 
0.16667 0.16667 0.16667 0.16667 0.16667 0.16667 0.16667 0.16667 0.16667 
0.16667 0.16667 0.16667 0.16667 0.16667 0.16667 0.16667 0.16667 0.16667 
0.16667 0.16667 0.16667 0.16667 0.16667 0.16667 0.16667 0.16667 0.16667 
0.16667 0.16667 0.16667 0.16667 0.16667 0.16667 0.16667 0.16667 0.16667 
0.16667 0.16667 0.16667 0.16667 0.16667 0.16667 0.16667 0.16667 0.16667 
0.16667 0.16667 0.16667 0.16667 0.16667 0.16667 0.16667 0.16667 0.16667 
0.16667 0.16667 0.16667 0.16667 0.16667 0.16667 0.16667 0.16667 0.16667 
0.16667 0.16667 0.16667 0.16667 0.16667 0.16667 0.16667 0.16667 0.16667 
0.16667 0.16667 0.16667 0.16667 0.16667 0.16667 0.16667 0.16667 0.16667 
0.16667 0.16667 0.16667 0.16667 0.16667 0.16667 0.16667 0.16667 0.16667 
0.16667 0.16667 0.16667 0.16667 0.16667 0.16667 0.16667 0.16667 0.16667 
0.16667 0.16667 0.16667 0.16667 0.16667 0.16667 0.16667 0.16667 0.16667 
0.16667 0.16667 0.16667 0.16667 0.16667 0.16667 0.16667 0.16667 0.16667 
0.16667 0.16667 0.16667 0.16667 0.16667 0.16667 0.16667 0.16667 0.16667 
0.16667 0.16667 0.16667 0.16667 0.16667 0.16667 0.16667 0.16667 0.16667 
0.16667 0.16667 0.16667 0.16667 0.16667 0.16667 0.16667 0.16667 0.16667 
0.16667 0.16667 0.16667 0.16667 0.16667 0.16667 0.16667 0.16667 0.16667 
0.16667 0.16667 0.16667 0.16667 0.16667 0.16667 0.16667 0.16667 0.16667 
0.16667 0.16667 0.16667 0.16667 0.16667 0.16667 0.16667 0.16667 0.16667 
0.16667 0.16667 0.16667 0.16667 0.16667 0.16667 0.16667 0.16667 0.16667 
0.16667 0.16667 0.16667 0.16667 0.16667 0.16667 0.16667 0.16667 0.16667 
0.16667 0.16667 0.16667 0.16667 0.16667 0.16667 0.16667 0.16667 0.16667 
0.16667 0.16667 0.16667 0.16667 0.16667 0.16667 0.16667 0.16667 0.16667 
0.16667 0.16667 0.16667 0.16667 0.16667 0.16667 0.16667 0.16667 0.16667 
0.16667 0.16667 0.16667 0.16667 0.16667 0.16667 0.16667 0.16667 0.16667 
0.16667 0.16667 0.16667 0.16667 0.16667 0.16667 0.16667 0.16667 0.16667 
0.16667 0.16667 0.16667 0.16667 0.16667 0.16667 0.16667 0.16667 0.16667 
0.16667 0.16667 0.16667 0.16667 0.16667 0.16667 0.16667 0.16667 0.16667 
0.16667 0.16667 0.16667 0.16667 0.16667 0.16667 0.16667 0.16667 0.16667 
0.16667 0.16667 0.16667 0.16667 0.16667 0.16667 0.16667 0.16667 0.16667 
0.16667 0.16667 0.16667 0.16667 0.16667 0.16667 0.16667 0.16667 0.16667 
0.16667 0.16667 0.16667 0.16667 0.16667 0.16667 0.16667 0.16667 0.16667 
0.16667 0.16667 0.16667 0.16667 0.16667 0.16667 0.16667 0.16667 0.16667 
0.16667 0.16667 0.16667 0.16667 0.16667 0.16667 0.16667 0.16667 0.16667 
0.16667 0.16667 0.16667 0.16667 0.16667 0.16667 0.16667 0.16667 0.16667 
0.16667 0.16667 0.16667 0.16667 0.16667 0.16667 0.16667 0.16667 0.16667 
0.16667 0.16667 0.16667 0.16667 0.16667 0.16667 0.16667 0.16667 0.16667 
0.16667 0.16667 0.16667 0.16667 0.16667 0.16667 0.16667 0.16667 0.16667 
0.16667 0.16667 0.16667 0.16667 0.16667 0.16667 0.16667 0.16667 0.16667 
0.16667 0.16667 0.16667 0.16667 0.16667 0.16667 0.16667 0.16667 0.16667 
0.16667 0.16667 0.16667 0.16667 0.16667 0.16667 0.16667 0.16667 0.16667 
0.16667 0.16667 0.16667 0.16667 0.16667 0.16667 0.16667 0.16667 0.16667 
0.16667 0.16667 0.16667 0.16667 0.16667 0.16667 0.16667 0.16667 0.16667 
0.16667 0.16667 0.16667 0.16667 0.16667 0.16667 0.16667 0.16667 0.16667 
0.16667 0.16667 0.16667 0.16667 0.16667 0.16667 0.16667 0.16667 0.16667 
0.16667 0.16667 0.16667 0.16667 0.16667 0.16667 0.16667 0.16667 0.16667 
0.16667 0.16667 0.16667 0.16667 0.16667 0.16667 0.16667 0.16667 0.16667 
0.16667 0.16667 0.16667 0.16667 0.16667 0.16667 0.16667 0.16667 0.16667 
0.16667 0.16667 0.16667 0.16667 0.16667 0.16667 0.16667 0.16667 0.16667 
0.16667 0.16667 0.16667 0.16667 0.16667 0.16667 0.16667 0.16667 0.16667 
0.16667 0.16667 0.16667 0.16667 0.16667 0.16667 0.16667 0.16667 0.16667 
0.16667 0.16667 0.16667 0.16667 0.16667 0.16667 0.16667 0.16667 0.16667 
0.16667 0.16667 0.16667 0.16667 0.16667 0.16667 0.16667 0.16667 0.16667 
0.16667 0.16667 0.16667 0.16667 0.16667 0.16667 0.16667 0.16667 0.16667 
0.16667 0.16667 0.16667 0.16667 0.16667 0.16667 0.16667 0.16667 0.16667 
0.16667 0.16667 0.16667 0.16667 0.16667 0.16667 0.16667 0.16667 0.16667 
0.16667 0.16667 0.16667 0.16667 0.16667 0.16667 0.16667 0.16667 0.16667 
0.16667 0.16667 0.16667 0.16667 0.16667 0.16667 0.16667 0.16667 0.16667 
0.16667 0.16667 0.16667 0.16667 0.16667 0.16667 0.16667 0.16667 0.16667 
0.16667 0.16667 0.16667 0.16667 0.16667 0.16667 0.16667 0.16667 0.16667 
0.16667 0.16667 0.16667 0.16667 0.16667 0.16667 0.16667 0.16667 0.16667 
0.16667 0.16667 0.16667 0.16667 0.16667 0.16667 0.16667 0.16667 0.16667 
0.16667 0.16667 0.16667 0.16667 0.16667 0.16667 0.16667 0.16667 0.16667 
0.16667 0.16667 0.16667 0.16667 0.16667 0.16667 0.16667 0.16667 0.16667 
0.16667 0.16667 0.16667 0.16667 0.16667 0.16667 0.16667 0.16667 0.16667 
0.16667 0.16667 0.16667 0.16667 0.16667 0.16667 0.16667 0.16667 0.16667 
0.16667 0.16667 0.16667 0.16667 0.16667 0.16667 0.16667 0.16667 0.16667 
0.16667 0.16667 0.16667 0.16667 0.16667 0.16667 0.16667 0.16667 0.16667 
0.16667 0.16667 0.16667 0.16667 0.16667 0.16667 0.16667 0.16667 0.16667 
0.16667 0.16667 0.16667 0.16667 0.16667 0.16667 0.16667 0.16667 0.16667 
0.16667 0.16667 0.16667 0.16667 0.16667 0.16667 0.16667 0.16667 0.16667 
0.16667 0.16667 0.16667 0.16667 0.16667 0.16667 0.16667 0.16667 0.16667 