# vtk DataFile Version 3.0
vtk output
ASCII
DATASET POLYDATA
POINTS 8572 float
94 49 1.7507 103 40 2.86667 102 41 2.61686 
103 41 2.65639 101 42 2.37629 102 42 2.45237 
100 43 2.34711 101 43 2.36428 102 43 2.57205 
99 44 2.52472 100 44 2.39314 101 44 2.36719 
98 45 2.42558 99 45 2.38699 100 45 2.48739 
97 46 2.35519 98 46 2.33746 99 46 2.40218 
96 47 2.25857 97 47 2.31326 98 47 2.3404 
94 48.7297 2 94 48 2.35711 95 48 2.26428 
96 48 2.33115 97 48 2.35328 93.7271 49 2 
93 49 2.29045 94.2493 49 2 94 49.2559 2 
95 49 2.2442 96 49 2.37179 92 50 2.47945 
93 50 2.39637 94 50 2.22442 95 50 2.25821 
92 51 2.4596 93 51 2.29933 94 51 2.24612 
95 51 2.54908 92 52 2.37693 93 52 2.28247 
94 52 2.41093 92 53 2.32239 93 53 2.30305 
94 53 2.97166 92 54 2.33929 93 54 2.35134 
92 55 2.3589 93 55 2.41449 92 56 2.35879 
93 56 2.89059 92 57 2.34306 93 57 2.9105 
92 58 2.35451 93 58 2.76726 91 59 2.55836 
92 59 2.4795 106 34 3.82908 108 34 3.61189 
109 34 3.59439 105 35 3.35851 106 35 3.31155 
107 35 3.11186 108 35 3.39482 105 36 3.43542 
106 36 3.25593 107 36 3.2586 108 36 3.66625 
105 37 3.39405 106 37 3.29713 107 37 3.37549 
104 38 3.39497 105 38 3.32773 106 38 3.35709 
107 38 3.84258 103 39.8667 3 103 39 3.4307 
104 39 3.31126 105 39 3.27666 106 39 3.66095 
102.717 40 3 102 40.3857 3 102 40 3.1745 
103.133 40 3 104 40 3.29303 105 40 3.58612 
101.283 41 3 101 41.1288 3 101 41 3.09691 
103.344 41 3 103 41.5025 3 104 41 3.57727 
100.153 42 3 100 42.1369 3 100 42 3.1078 
102.7 42 3 103 42 3.14235 99.2325 43 3 
99 43.3861 3 99 43 3.26983 102.428 43 3 
102 43.4991 3 98.4294 44 3 98 44.3355 3 
98 44 3.33397 101.697 44 3 101 44.7089 3 
102 44 3.29723 97.3046 45 3 97 45.2457 3 
97 45 3.25457 100.598 45 3 100 45.6134 3 
101 45 3.17964 96.219 46 3 96 46.1508 3 
96 46 3.30978 99.6916 46 3 99 46.7265 3 
100 46 3.15858 94 47.3825 3 95.1467 47 3 
95 47.1504 3 95 47 3.30943 98.7759 47 3 
98 47.7668 3 99 47 3.13103 93.3825 48 3 
93 48.3163 3 97.7564 48 3 97 48.6855 3 
98 48 3.14191 92.3163 49 3 92 49.4795 3 
96.668 49 3 96 49.7023 3 97 49 3.21814 
91.4795 50 3 95.8004 50 3 96 50 3.18747 
91.4199 51 3 95.4509 51 3 95 51.4509 3 
91.1565 52 3 91 52 3.30566 94.5891 52 3 
95 52 3.45648 91.0969 53 3 91 53 3.11816 
94.0283 53 3 94 53.1423 3 91.0998 54 3 
91 54 3.10254 93.913 54 3 94 54 3.10672 
91.1767 55 3 91 55 3.16499 93.6727 55 3 
94 55 3.35355 91.1684 56 3 91 56 3.16351 
93.1094 56 3 94 56 3.89498 91.0794 57 3 
91 57 3.05722 93.0895 57 3 94 57 3.8678 
91.029 58 3 91 58.0643 3 91 58 3.01947 
93.2327 58 3 93 58.8229 3 94 58 3.67544 
90.5228 59 3 90 59 3.69811 91 59.9425 3 
92.9433 59 3 92 59.5205 3 93 59 3.02241 
94 59 3.80428 90 60 3.29005 91 60 3.01472 
92 60 3.31873 93 60 3.26505 90 61 3.36312 
91 61 3.27779 92 61 3.36523 89 62 3.44058 
90 62 3.31455 91 62 3.35366 88 63 3.40294 
89 63 3.34188 90 63 3.31208 87 64 3.60201 
88 64 3.41961 89 64 3.48967 106 33.8291 4 
108 33.6119 4 109 33.5944 4 105.247 34 4 
105 34.0365 4 105 34 4.0905 106.417 34 4 
107.312 34 4 107 34.0803 4 108 34 4.98865 
109.98 34 4 109 34.7389 4 110 34 4.02204 
104.359 35 4 104 35 4.86082 108.864 35 4 
109 35 4.08898 110 35 4.62728 104.435 36 4 
108.334 36 4 108 36.3337 4 109 36 4.46024 
104.394 37 4 104 37.395 4 104 37 4.3204 
107.625 37 4 108 37 4.35948 103.395 38 4 
103 38.4307 4 107.157 38 4 107 38.1574 4 
102.431 39 4 102 39.3516 4 106.339 39 4 
106 39.3391 4 101.352 40 4 101 40.3045 4 
105.414 40 4 105 40.4139 4 100.293 41 4 
100 41.2768 4 104.423 41 4 104 41.4227 4 
99.2882 42 4 99 42.3934 4 103.757 42 4 
103 42.7942 4 104 42 4.47204 98.3934 43 4 
98 43.4238 4 102.821 43 4 103 43 4.26281 
97.4238 44 4 97 44.3661 4 102.64 44 4 
102 44.6396 4 96.3661 45 4 96 45.4685 4 
101.764 45 4 101 45.7637 4 102 45 4.59594 
95.4685 46 4 95 46.4762 4 96 46 4.61711 
100.779 46 4 100 46.7786 4 101 46 4.35246 
94.4762 47 4 94 47.6222 4 95 47 4.55809 
99.7878 47 4 99 47.7878 4 100 47 4.43005 
93.6222 48 4 93 48.4517 4 94 48 4.38697 
98.7809 48 4 98 48.7809 4 99 48 4.89269 
92.2253 49 4 92 49.1816 4 93 49 4.54828 
97.7507 49 4 97 49.7507 4 91.3642 50 4 
92 50 4.61404 96.7564 50 4 96 50.8771 4 
91.2079 51 4 91 51.5156 4 95.888 51 4 
90.5894 52 4 91 52 4.41064 95.5435 52 4 
95 52.5435 4 90.3728 53 4 91 53 4.75572 
94.7287 53 4 90.3462 54 4 91 54 4.81972 
94.5955 54 4 94 54 4.68564 90.3402 55 4 
91 55 4.95104 94.5569 55 4 94 55 4.64555 
90.3506 56 4 94.105 56 4 94 56 4.18835 
90.2688 57 4 94.1322 57 4 94 57 4.38831 
90.2675 58 4 90 58.7274 4 94.3246 58 4 
89.7274 59 4 94.1957 59 4 94 59.2622 4 
89.3129 60 4 93.8019 60 4 93 60.7349 4 
89.207 61 4 89 61.265 4 89 61 4.20866 
92.6348 61 4 92 61.6765 4 93 61 4.33101 
88.3419 62 4 88 62.308 4 88 62 4.5123 
91.6874 62 4 91 62.7063 4 92 62 4.20954 
87.1403 63 4 87 63.2678 4 87 63 4.10463 
90.7436 63 4 90 63.7469 4 91 63 4.24862 
86.4189 64 4 86 64 4.40814 87 64.398 4 
88 64.5804 4 89.5826 64 4 89 64.5103 4 
90 64 4.23074 80 65 4.64648 81 65 4.56576 
82 65 4.44949 83 65 4.38178 84 65 4.98774 
87 65 4.67638 88 65 4.31552 89 65 4.58322 
82 66 4.77184 83 66 4.63047 84 66 4.59822 
87 66 4.84057 85 67 4.66181 86 67 4.98986 
87 67 4.6294 86 68 4.81706 117 31 5.83862 
105 33.595 5 106 33.7522 5 109 33.6081 5 
110 33.6156 5 104.595 34 5 104 34.8608 5 
105 34 5.40498 106.934 34 5 106 34 5.24777 
107 34.0069 5 108.011 34 5 108 34.0039 5 
109 34 5.39185 110.384 34 5 110 34 5.38444 
103.861 35 5 104 35.4911 5 104 35 5.13918 
105 35 5.87402 110.373 35 5 110 35.3727 5 
110 35 5.53753 104.054 36 5 104 36.0732 5 
105 36 5.95437 109.54 36 5 109 36.5956 5 
110 36 5.42765 103.32 37 5 104 37 5.6796 
108.691 37 5 108 37.6819 5 109 37 5.18544 
110 37 5.93946 103.221 38 5 103 38.43 5 
104 38 5.98967 107.785 38 5 107 38.9408 5 
108 38 5.23137 109 38 5.4526 110 38 5.90042 
102.43 39 5 102 39.6273 5 103 39 5.56999 
106.952 39 5 106 39.9272 5 107 39 5.121 
108 39 5.71509 101.627 40 5 101 40.3468 5 
102 40 5.37266 105.925 40 5 105 40.8156 5 
106 40 5.16026 107 40 5.9586 100.347 41 5 
100 41.3187 5 101 41 5.65318 104.77 41 5 
105 41 5.36882 99.3187 42 5 99 42.5726 5 
100 42 5.68127 104.528 42 5 104 42.528 5 
98.5726 43 5 98 43.476 5 99 43 5.42738 
103.694 43 5 103 43.7093 5 97.476 44 5 
97 44.692 5 98 44 5.52405 99 44 5.92055 
102.734 44 5 96.692 45 5 97 45 5.30801 
98 45 5.88767 102.404 45 5 102 45.4041 5 
102 45 5.60397 96.186 46 5 96 46.1867 5 
97 46 5.84665 101.648 46 5 101 46.6475 5 
101 46 5.77989 95.2212 47 5 95 47.2158 5 
96 47 5.84034 100.57 47 5 100 47.57 5 
100 47 5.56995 94.2331 48 5 94 48.2595 5 
95 48 5.83042 98 48.7082 5 98 48 5.79184 
99.1073 48 5 99 48.1073 5 99 48 5.10731 
93.267 49 5 93 49.2598 5 94 49 5.77224 
97.6898 49 5 97 49.6899 5 97 49 5.74596 
92.2598 50 5 92 50.9056 5 93 50 5.75382 
96.6884 50 5 96 50.6884 5 96 50 5.7359 
91.9056 51 5 92 51 5.0944 93 51 5.97285 
95.7319 51 5 95 51 5.85753 91.4398 52 5 
92 52 5.56015 93 52 5.77681 95.3385 52 5 
95 52.3385 5 95 52 5.35772 91.3067 53 5 
92 53 5.55142 93 53 5.77634 94.6304 53 5 
94 53.7165 5 94 53 5.68272 91.2003 54 5 
92 54 5.62381 93.7766 54 5 93 54 5.70122 
91.0464 55 5 91 55.4201 5 92 55 5.67254 
93.7809 55 5 93 55 5.75912 90.8788 56 5 
91 56 5.12116 92 56 5.67219 93.8479 56 5 
93 56 5.79958 90.8823 57 5 91 57 5.11773 
93.9286 57 5 93 57 5.90542 94 57.2067 5 
90.3084 58 5 90 58.643 5 91 58 5.73713 
94.4794 58 5 94 58 5.58394 89.643 59 5 
90 59 5.35698 94.5475 59 5 94 59.7676 5 
94 59 5.5683 89.2514 60 5 89 60.3655 5 
90 60 5.99624 93.8914 60 5 88.3655 61 5 
88 61.6143 5 89 61 5.75969 93.669 61 5 
93 61.669 5 93 61 5.67599 87.6143 62 5 
87 62.3258 5 88 62 5.61846 92.7582 62 5 
92 62.7582 5 92 62 5.89109 75 63 5.4459 
76 63 5.37859 77 63 5.36129 78 63 5.40413 
79 63 5.44212 86.2199 63 5 86 63.4577 5 
87 63 5.91842 91.6967 63 5 91 63.6967 5 
91 63 5.8892 76 64 5.47782 77 64 5.33019 
78 64 5.21387 79 64 5.11312 80 64.4058 5 
80 64 5.10517 81 64.3968 5 81 64 5.17473 
82 64.3685 5 82 64 5.27381 83 64.3633 5 
83 64 5.4559 84 64.9877 5 85.4744 64 5 
85 64 5.76071 86 64.7114 5 90.7135 64 5 
90 64.7135 5 77 65 5.53222 78 65 5.34098 
79.4586 65 5 79 65 5.11058 80 65.4115 5 
81 65.7434 5 84.0249 65 5 86.3694 65 5 
88 65.9256 5 89.4168 65 5 89 65.4168 5 
79 66 5.91248 80 66 5.20632 81.4726 66 5 
81 66 5.07281 82 66.2282 5 83 66.3695 5 
84.8229 66 5 84 66.8526 5 85 66.2205 5 
85 66 5.11991 86.6502 66 5 86 66.9718 5 
86 66 5.29793 87.5211 66 5 88 66 5.13495 
83 67 5.54861 84.1852 67 5 84 67 5.05778 
85 67.3382 5 87.3706 67 5 87 67.8837 5 
88 67 5.76861 84 68 5.7764 85.8171 68 5 
85 68 5.32643 86.7429 68 5 86 68.1829 5 
87 68 5.02223 88 68 5.46448 85 69 5.5 
86 69 5.29112 87 69 5.24828 88 69 5.61819 
86 70 5.35571 87 70 5.30499 88 70 5.31637 
86 71 5.40897 87 71 5.24289 88 71 5.38565 
86 72 5.64135 87 72 5.3923 116 24 6.79143 
115 25 6.67529 116 25 6.60003 115 26 6.79489 
116 26 6.44018 115 27 6.98208 116 27 6.37496 
117 27 6.59459 116 28 6.37454 117 28 6.50194 
116 29 6.3724 117 29 6.41991 116 30 6.36367 
117 30.8386 6 117 30 6.3368 118 30 6.36015 
115 31 6.93066 116.444 31 6 116 31 6.05356 
117.192 31 6 117 31.1614 6 118 31 6.27493 
116 32 6.28423 117 32 6.28274 118 32 6.28158 
116 33 6.52381 117 33 6.33742 118 33 6.33259 
106 34.7338 6 107 34.6995 6 108 34.4041 6 
109 34.4337 6 117 34 6.47031 118 34 6.28059 
119 34 6.29886 105.546 35 6 106 35 6.26623 
107 35 6.30048 108 35 6.82879 109.719 35 6 
110 35.2764 6 117 35 6.50318 118 35 6.28397 
119 35 6.36784 105.069 36 6 105 36.1547 6 
106 36 6.65362 107 36 6.72554 110.572 36 6 
118 36 6.42366 119 36 6.35382 104.566 37 6 
105 37 6.43428 106 37 6.68085 107 37 6.83674 
110.061 37 6 111 37 6.70249 119 37 6.4065 
120 37 6.53057 104.023 38 6 104 38.0291 6 
105 38 6.61085 106 38 6.68875 109 38.5844 6 
110.1 38 6 110 38.0996 6 111 38 6.38112 
119 38 6.50067 120 38 6.43894 121 38 6.62668 
103.449 39 6 103 39.7277 6 104 39 6.55135 
105 39 6.69485 106 39 6.94961 108.317 39 6 
108 39.2849 6 109 39 6.23848 110 39 6.25803 
111 39 6.58622 120 39 6.53649 121 39 6.97794 
102.728 40 6 102 40.7048 6 103 40 6.27225 
104 40 6.69276 105 40 6.98206 106 40.6481 6 
[...]
POINT_DATA 8572
SCALARS scalars float
LOOKUP_TABLE default
0.16667 0.16667 0.16667 0.16667 0.16667 0.16667 0.16667 0.16667 0.16667 
0.16667 0.16667 0.16667 0.16667 0.16667 0.16667 0.16667 0.16667 0.16667 
0.16667 0.16667 0.16667 0.16667 0.16667 0.16667 0.16667 0.16667 0.16667 
0.16667 0.16667 0.16667 0.16667 0.16667 0.16667 0.16667 0.16667 0.16667 
0.16667 0.16667 0.16667 0.16667 0.16667 0.16667 0.16667 0.16667 0.16667 
0.16667 0.16667 0.16667 0.16667 0.16667 0.16667 0.16667 0.16667 0.16667 
0.16667 0.16667 0.16667 0.16667 0.16667 0.16667 0.16667 0.16667 0.16667 
0.16667 0.16667 0.16667 0.16667 0.16667 0.16667 0.16667 0.16667 0.16667 
0.16667 0.16667 0.16667 0.16667 0.16667 0.16667 0.16667 0.16667 0.16667 
0.16667 0.16667 0.16667 0.16667 0.16667 0.16667 0.16667 0.16667 0.16667 
0.16667 0.16667 0.16667 0.16667 0.16667 0.16667 0.16667 0.16667 0.16667 
0.16667 0.16667 0.16667 0.16667 0.16667 0.16667 0.16667 0.16667 0.16667 
0.16667 0.16667 0.16667 0.16667 0.16667 0.16667 0.16667 0.16667 0.16667 
0.16667 0.16667 0.16667 0.16667 0.16667 0.16667 0.16667 0.16667 0.16667 
0.16667 0.16667 0.16667 0.16667 0.16667 0.16667 0.16667 0.16667 0.16667 
0.16667 0.16667 0.16667 0.16667 0.16667 0.16667 0.16667 0.16667 0.16667 
0.16667 0.16667 0.16667 0.16667 0.16667 0.16667 0.16667 0.16667 0.16667 
0.16667 0.16667 0.16667 0.16667 0.16667 0.16667 0.16667 0.16667 0.16667 
0.16667 0.16667 0.16667 0.16667 0.16667 0.16667 0.16667 0.16667 0.16667 
0.16667 0.16667 0.16667 0.16667 0.16667 0.16667 0.16667 0.16667 0.16667 
0.16667 0.16667 0.16667 0.16667 0.16667 0.16667 0.16667 0.16667 0.16667 
0.16667 0.16667 0.16667 0.16667 0.16667 0.16667 0.16667 0.16667 0.16667 
0.16667 0.16667 0.16667 0.16667 0.16667 0.16667 0.16667 0.16667 0.16667 
0.16667 0.16667 0.16667 0.16667 0.16667 0.16667 0.16667 0.16667 0.16667 
0.16667 0.16667 0.16667 0.16667 0.16667 0.16667 0.16667 0.16667 0.16667 
0.16667 0.16667 0.16667 0.16667 0.16667 0.16667 0.16667 0.16667 0.16667 
0.16667 0.16667 0.16667 0.16667 0.16667 0.16667 0.16667 0.16667 0.16667 
0.16667 0.16667 0.16667 0.16667 0.16667 0.16667 0.16667 0.16667 0.16667 
0.16667 0.16667 0.16667 0.16667 0.16667 0.16667 0.16667 0.16667 0.16667 
0.16667 0.16667 0.16667 0.16667 0.16667 0.16667 0.16667 0.16667 0.16667 
0.16667 0.16667 0.16667 0.16667 0.16667 0.16667 0.16667 0.16667 0.16667 
0.16667 0.16667 0.16667 0.16667 0.16667 0.16667 0.16667 0.16667 0.16667 
0.16667 0.16667 0.16667 0.16667 0.16667 0.16667 0.16667 0.16667 0.16667 
0.16667 0.16667 0.16667 0.16667 0.16667 0.16667 0.16667 0.16667 0.16667 
0.16667 0.16667 0.16667 0.16667 0.16667 0.16667 0.16667 0.16667 0.16667 
0.16667 0.16667 0.16667 0.16667 0.16667 0.16667 0.16667 0.16667 0.16667 
0.16667 0.16667 0.16667 0.16667 0.16667 0.16667 0.16667 0.16667 0.16667 
0.16667 0.16667 0.16667 0.16667 0.16667 0.16667 0.16667 0.16667 0.16667 
0.16667 0.16667 0.16667 0.16667 0.16667 0.16667 0.16667 0.16667 0.16667 
0.16667 0.16667 0.16667 0.16667 0.16667 0.16667 0.16667 0.16667 0.16667 
0.16667 0.16667 0.16667 0.16667 0.16667 0.16667 0.16667 0.16667 0.16667 
0.16667 0.16667 0.16667 0.16667 0.16667 0.16667 0.16667 0.16667 0.16667 
0.16667 0.16667 0.16667 0.16667 0.16667 0.16667 0.16667 0.16667 0.16667 
0.16667 0.16667 0.16667 0.16667 0.16667 0.16667 0.16667 0.16667 0.16667 
0.16667 0.16667 0.16667 0.16667 0.16667 0.16667 0.16667 0.16667 0.16667 
0.16667 0.16667 0.16667 0.16667 0.16667 0.16667 0.16667 0.16667 0.16667 
0.16667 0.16667 0.16667 0.16667 0.16667 0.16667 0.16667 0.16667 0.16667 
0.16667 0.16667 0.16667 0.16667 0.16667 0.16667 0.16667 0.16667 0.16667 
0.16667 0.16667 0.16667 0.16667 0.16667 0.16667 0.16667 0.16667 0.16667 
0.16667 0.16667 0.16667 0.16667 0.16667 0.16667 0.16667 0.16667 0.16667 
0.16667 0.16667 0.16667 0.16667 0.16667 0.16667 0.16667 0.16667 0.16667 
0.16667 0.16667 0.16667 0.16667 0.16667 0.16667 0.16667 0.16667 0.16667 
0.16667 0.16667 0.16667 0.16667 0.16667 0.16667 0.16667 0.16667 0.16667 
0.16667 0.16667 0.16667 0.16667 0.16667 0.16667 0.16667 0.16667 0.16667 
0.16667 0.16667 0.16667 0.16667 0.16667 0.16667 0.16667 0.16667 0.16667 
0.16667 0.16667 0.16667 0.16667 0.16667 0.16667 0.16667 0.16667 0.16667 
0.16667 0.16667 0.16667 0.16667 0.16667 0.16667 0.16667 0.16667 0.16667 
0.16667 0.16667 0.16667 0.16667 0.16667 0.16667 0.16667 0.16667 0.16667 
0.16667 0.16667 0.16667 0.16667 0.16667 0.16667 0.16667 0.16667 0.16667 
0.16667 0.16667 0.16667 0.16667 0.16667 0.16667 0.16667 0.16667 0.16667 
0.16667 0.16667 0.16667 0.16667 0.16667 0.16667 0.16667 0.16667 0.16667 
0.16667 0.16667 0.16667 0.16667 0.16667 0.16667 0.16667 0.16667 0.16667 
0.16667 0.16667 0.16667 0.16667 0.16667 0.16667 0.16667 0.16667 0.16667 
0.16667 0.16667 0.16667 0.16667 0.16667 0.16667 0.16667 0.16667 0.16667 
0.16667 0.16667 0.16667 0.16667 0.16667 0.16667 0.16667 0.16667 0.16667 
0.16667 0.16667 0.16667 0.16667 0.16667 0.16667 0.16667 0.16667 0.16667 
0.16667 0.16667 0.16667 0.16667 0.16667 0.16667 0.16667 0.16667 0.16667 
0.16667 0.16667 0.16667 0.16667 0.16667 0.16667 0.16667 0.16667 0.16667 
0.16667 0.16667 0.16667 0.16667 0.16667 0.16667 0.16667 0.16667 0.16667 
0.16667 0.16667 0.16667 0.16667 0.16667 0.16667 0.16667 0.16667 0.16667 
0.16667 0.16667 0.16667 0.16667 0.16667 0.16667 0.16667 0.16667 0.16667 
0.16667 0.16667 0.16667 0.16667 0.16667 0.16667 0.16667 0.16667 0.16667 
0.16667 0.16667 0.16667 0.16667 0.16667 0.16667 0.16667 0.16667 0.16667 
0.16667 0.16667 0.16667 0.16667 0.16667 0.16667 0.16667 0.16667 0.16667 
0.16667 0.16667 0.16667 0.16667 0.16667 0.16667 0.16667 0.16667 0.16667 
0.16667 0.16667 0.16667 0.16667 0.16667 0.16667 0.16667 0.16667 0.16667 
0.16667 0.16667 0.16667 0.16667 0.16667 0.16667 0.16667 0.16667 0.16667 
0.16667 0.16667 0.16667 0.16667 0.16667 0.16667 0.16667 0.16667 0.16667 
0.16667 0.16667 0.16667 0.16667 0.16667 0.16667 0.16667 0.16667 0.16667 
0.16667 0.16667 0.16667 0.16667 0.16667 0.16667 0.16667 0.16667 0.16667 
0.16667 0.16667 0.16667 0.16667 0.16667 0.16667 0.16667 0.16667 0.16667 
0.16667 0.16667 0.16667 0.16667 0.16667 0.16667 0.16667 0.16667 0.16667 
0.16667 0.16667 0.16667 0.16667 0.16667 0.16667 0.16667 0.16667 0.16667 
0.16667 0.16667 0.16667 0.16667 0.16667 0.16667 0.16667 0.16667 0.16667 
0.16667 0.16667 0.16667 0.16667 0.16667 0.16667 0.16667 0.16667 0.16667 
0.16667 0.16667 0.16667 0.16667 0.16667 0.16667 0.16667 0.16667 0.16667 
0.16667 0.16667 0.16667 0.16667 0.16667 0.16667 0.16667 0.16667 0.16667 
0.16667 0.16667 0.16667 0.16667 0.16667 0.16667 0.16667 0.16667 0.16667 
0.16667 0.16667 0.16667 0.16667 0.16667 0.16667 0.16667 0.16667 0.16667 
0.16667 0.16667 0.16667 0.16667 0.16667 0.16667 0.16667 0.16667 0.16667 
0.16667 0.16667 0.16667 0.16667 0.16667 0.16667 0.16667 0.16667 0.16667 
0.16667 0.16667 0.16667 0.16667 0.16667 0.16667 0.16667 0.16667 0.16667 
0.16667 0.16667 0.16667 0.16667 0.16667 0.16667 0.16667 0.16667 0.16667 
0.16667 0.16667 0.16667 0.16667 0.16667 0.16667 0.16667 0.16667 0.16667 
0.16667 0.16667 0.16667 0.16667 0.16667 0.16667 0.16667 0.16667 0.16667 
0.16667 0.16667 0.16667 0.16667 0.16667 0.16667 0.16667 0.16667 0.16667 
0.16667 0.16667 0.16667 0.16667 0.16667 0.16667 0.16667 0.16667 0.16667 
0.16667 0.16667 0.16667 0.16667 0.16667 0.16667 0.16667 0.16667 0.16667 
0.16667 0.16667 0.16667 0.16667 0.16667 0.16667 0.16667 0.16667 0.16667 
0.16667 0.16667 0.16667 0.16667 0.16667 0.16667 0.16667 0.16667 0.16667 
0.16667 0.16667 0.16667 0.16667 0.16667 0.16667 0.16667 0.16667 0.16667 
0.16667 0.16667 0.16667 0.16667 0.16667 0.16667 0.16667 0.16667 0.16667 
0.16667 0.16667 0.16667 0.16667 0.16667 0.16667 0.16667 0.16667 0.16667 
0.16667 0.16667 0.16667 0.16667 0.16667 0.16667 0.16667 0.16667 0.16667 
0.16667 0.16667 0.16667 0.16667 0.16667 0.16667 0.16667 0.16667 0.16667 
0.16667 0.16667 0.16667 0.16667 0.16667 0.16667 0.16667 0.16667 0.16667 
0.16667 0.16667 0.16667 0.16667 0.16667 0.16667 0.16667 0.16667 0.16667 
0.16667 0.16667 0.16667 0.16667 0.16667 0.16667 0.16667 0.16667 0.16667 
0.16667 0.16667 0.16667 0.16667 0.16667 0.16667 0.16667 0.16667 0.16667 
0.16667 0.16667 0.16667 0.16667 0.16667 0.16667 0.16667 0.16667 0.16667 
0.16667 0.16667 0.16667 0.16667 0.16667 0.16667 0.16667 0.16667 0.16667 
0.16667 0.16667 0.16667 0.16667 0.16667 0.16667 0.16667 0.16667 0.16667 
0.16667 0.16667 0.16667 0.16667 0.16667 0.16667 0.16667 0.16667 0.16667 
0.16667 0.16667 0.16667 0.16667 0.16667 0.16667 0.16667 0.16667 0.16667 
0.16667 0.16667 0.16667 0.16667 0.16667 0.16667 0.16667 0.16667 0.16667 
0.16667 0.16667 0.16667 0.16667 0.16667 0.16667 0.16667 0.16667 0.16667 
0.16667 0.16667 0.16667 0.16667 0.16667 0.16667 0.16667 0.16667 0.16667 
0.16667 0.16667 0.16667 0.16667 0.16667 0.16667 0.16667 0.16667 0.16667 
0.16667 0.16667 0.16667 0.16667 0.16667 0.16667 0.16667 0.16667 0.16667 
0.16667 0.16667 0.16667 0.16667 0.16667 0.16667 0.16667 0.16667 0.16667 
0.16667 0.16667 0.16667 0.16667 0.16667 0.16667 0.16667 0.16667 0.16667 
0.16667 0.16667 0.16667 0.16667 0.16667 0.16667 0.16667 0.16667 0.16667 
0.16667 0.16667 0.16667 0.16667 0.16667 0.16667 0.16667 0.16667 0.16667 
0.16667 0.16667 0.16667 0.16667 0.16667 0.16667 0.16667 0.16667 0.16667 
0.16667 0.16667 0.16667 0.16667 0.16667 0.16667 0.16667 0.16667 0.16667 
0.16667 0.16667 0.16667 0.16667 0.16667 0.16667 0.16667 0.16667 0.16667 
0.16667 0.16667 0.16667 0.16667 0.16667 0.16667 0.16667 0.16667 0.16667 
0.16667 0.16667 0.16667 0.16667 0.16667 0.16667 0.16667 0.16667 0.16667 
0.16667 0.16667 0.16667 0.16667 0.16667 0.16667 0.16667 0.16667 0.16667 
0.16667 0.16667 0.16667 0.16667 0.16667 0.16667 0.16667 0.16667 0.16667 
0.16667 0.16667 0.16667 0.16667 0.16667 0.16667 0.16667 0.16667 0.16667 
0.16667 0.16667 0.16667 0.16667 0.16667 0.16667 0.16667 0.16667 0.16667 
0.16667 0.16667 0.16667 0.16667 0.16667 0.16667 0.16667 0.16667 0.16667 
0.16667 0.16667 0.16667 0.16667 0.16667 0.16667 0.16667 0.16667 0.16667 
0.16667 0.16667 0.16667 0.16667 0.16667 0.16667 0.16667 0.16667 0.16667 
0.16667 0.16667 0.16667 0.16667 0.16667 0.16667 0.16667 0.16667 0.16667 
0.16667 0.16667 0.16667 0.16667 0.16667 0.16667 0.16667 0.16667 0.16667 
0.16667 0.16667 0.16667 0.16667 0.16667 0.16667 0.16667 0.16667 0.16667 
0.16667 0.16667 0.16667 0.16667 0.16667 0.16667 0.16667 0.16667 0.16667 
0.16667 0.16667 0.16667 0.16667 0.16667 0.16667 0.16667 0.16667 0.16667 
0.16667 0.16667 0.16667 0.16667 0.16667 0.16667 0.16667 0.16667 0.16667 
0.16667 0.16667 0.16667 0.16667 0.16667 0.16667 0.16667 0.16667 0.16667 
0.16667 0.16667 0.16667 0.16667 0.16667 0.16667 0.16667 0.16667 0.16667 
0.16667 0.16667 0.16667 0.16667 0.16667 0.16667 0.16667 0.16667 0.16667 
0.16667 0.16667 0.16667 0.16667 0.16667 0.16667 0.16667 0.16667 0.16667 
0.16667 0.16667 0.16667 0.16667 0.16667 0.16667 0.16667 0.16667 0.16667 
0.16667 0.16667 0.16667 0.16667 0.16667 0.16667 0.16667 0.16667 0.16667 
0.16667 0.16667 0.16667 0.16667 0.16667 0.16667 0.16667 0.16667 0.16667 
0.16667 0.16667 0.16667 0.16667 0.16667 0.16667 0.16667 0.16667 0.16667 
0.16667 0.16667 0.16667 0.16667 0.16667 0.16667 0.16667 0.16667 0.16667 
0.16667 0.16667 0.16667 0.16667 0.16667 0.16667 0.16667 0.16667 0.16667 
0.16667 0.16667 0.16667 0.16667 0.16667 0.16667 0.16667 0.16667 0.16667 
0.16667 0.16667 0.16667 0.16667 0.16667 0.16667 0.16667 0.16667 0.16667 
0.16667 0.16667 0.16667 0.16667 0.16667 0.16667 0.16667 0.16667 0.16667 
0.16667 0.16667 0.16667 0.16667 0.16667 0.16667 0.16667 0.16667 0.16667 
0.16667 0.16667 0.16667 0.16667 0.16667 0.16667 0.16667 0.16667 0.16667 
0.16667 0.16667 0.16667 0.16667 0.16667 0.16667 0.16667 0.16667 0.16667 
0.16667 0.16667 0.16667 0.16667 0.16667 0.16667 0.16667 0.16667 0.16667 
0.16667 0.16667 0.16667 0.16667 0.16667 0.16667 0.16667 0.16667 0.16667 
0.16667 0.16667 0.16667 0.16667 0.16667 0.16667 0.16667 0.16667 0.16667 
0.16667 0.16667 0.16667 0.16667 0.16667 0.16667 0.16667 0.16667 0.16667 
0.16667 0.16667 0.16667 0.16667 0.16667 0.16667 0.16667 0.16667 0.16667 
0.16667 0.16667 0.16667 0.16667 0.16667 0.16667 0.16667 0.16667 0.16667 
0.16667 0.16667 0.16667 0.16667 0.16667 0.16667 0.16667 0.16667 0.16667 
0.16667 0.16667 0.16667 0.16667 0.16667 0.16667 0.16667 0.16667 0.16667 
0.16667 0.16667 0.16667 0.16667 0.16667 0.16667 0.16667 0.16667 0.16667 
0.16667 0.16667 0.16667 0.16667 0.16667 0.16667 0.16667 0.16667 0.16667 
0.16667 0.16667 0.16667 0.16667 0.16667 0.16667 0.16667 0.16667 0.16667 
0.16667 0.16667 0.16667 0.16667 0.16667 0.16667 0.16667 0.16667 0.16667 
0.16667 0.16667 0.16667 0.16667 0.16667 0.16667 0.16667 0.16667 0.16667 
0.16667 0.16667 0.16667 0.16667 0.16667 0.16667 0.16667 0.16667 0.16667 
0.16667 0.16667 0.16667 0.16667 0.16667 0.16667 0.16667 0.16667 0.16667 
0.16667 0.16667 0.16667 0.16667 0.16667 0.16667 0.16667 0.16667 0.16667 
0.16667 0.16667 0.16667 0.16667 0.16667 0.16667 0.16667 0.16667 0.16667 
0.16667 0.16667 0.16667 0.16667 0.16667 0.16667 0.16667 0.16667 0.16667 
0.16667 0.16667 0.16667 0.16667 0.16667 0.16667 0.16667 0.16667 0.16667 
0.16667 0.16667 0.16667 0.16667 0.16667 0.16667 0.16667 0.16667 0.16667 
0.16667 0.16667 0.16667 0.16667 0.16667 0.16667 0.16667 0.16667 0.16667 
0.16667 0.16667 0.16667 0.16667 0.16667 0.16667 0.16667 0.16667 0.16667 
0.16667 0.16667 0.16667 0.16667 0.16667 0.16667 0.16667 0.16667 0.16667 
0.16667 0.16667 0.16667 0.16667 0.16667 0.16667 0.16667 0.16667 0.16667 
0.16667 0.16667 0.16667 0.16667 0.16667 0.16667 0.16667 0.16667 0.16667 
0.16667 0.16667 0.16667 0.16667 0.16667 0.16667 0.16667 0.16667 0.16667 
0.16667 0.16667 0.16667 0.16667 0.16667 0.16667 0.16667 0.16667 0.16667 
0.16667 0.16667 0.16667 0.16667 0.16667 0.16667 0.16667 0.16667 0.16667 
0.16667 0.16667 0.16667 0.16667 0.16667 0.16667 0.16667 0.16667 0.16667 
0.16667 0.16667 0.16667 0.16667 0.16667 0.16667 0.16667 0.16667 0.16667 
0.16667 0.16667 0.16667 0.16667 0.16667 0.16667 0.16667 0.16667 0.16667 
0.16667 0.16667 0.16667 0.16667 0.16667 0.16667 0.16667 0.16667 0.16667 
0.16667 0.16667 0.16667 0.16667 0.16667 0.16667 0.16667 0.16667 0.16667 
0.16667 0.16667 0.16667 0.16667 0.16667 0.16667 0.16667 0.16667 0.16667 
0.16667 0.16667 0.16667 0.16667 0.16667 0.16667 0.16667 0.16667 0.16667 
0.16667 0.16667 0.16667 0.16667 0.16667 0.16667 0.16667 0.16667 0.16667 
0.16667 0.16667 0.16667 0.16667 0.16667 0.16667 0.16667 0.16667 0.16667 
0.16667 0.16667 0.16667 0.16667 0.16667 0.16667 0.16667 0.16667 0.16667 
0.16667 0.16667 0.16667 0.16667 0.16667 0.16667 0.16667 0.16667 0.16667 
0.16667 0.16667 0.16667 0.16667 0.16667 0.16667 0.16667 0.16667 0.16667 
0.16667 0.16667 0.16667 0.16667 0.16667 0.16667 0.16667 0.16667 0.16667 
0.16667 0.16667 0.16667 0.16667 0.16667 0.16667 0.16667 0.16667 0.16667 
0.16667 0.16667 0.16667 0.16667 0.16667 0.16667 0.16667 0.16667 0.16667 
0.16667 0.16667 0.16667 0.16667 0.16667 0.16667 0.16667 0.16667 0.16667 
0.16667 0.16667 0.16667 0.16667 0.16667 0.16667 0.16667 0.16667 0.16667 
0.16667 0.16667 0.16667 0.16667 0.16667 0.16667 0.16667 0.16667 0.16667 
0.16667 0.16667 0.16667 0.16667 0.16667 0.16667 0.16667 0.16667 0.16667 
0.16667 0.16667 0.16667 0.16667 0.16667 0.16667 0.16667 0.16667 0.16667 
0.16667 0.16667 0.16667 0.16667 0.16667 0.16667 0.16667 0.16667 0.16667 
0.16667 0.16667 0.16667 0.16667 0.16667 0.16667 0.16667 0.16667 0.16667 
0.16667 0.16667 0.16667 0.16667 0.16667 0.16667 0.16667 0.16667 0.16667 
0.16667 0.16667 0.16667 0.16667 0.16667 0.16667 0.16667 0.16667 0.16667 
0.16667 0.16667 0.16667 0.16667 0.16667 0.16667 0.16667 0.16667 0.16667 
0.16667 0.16667 0.16667 0.16667 0.16667 0.16667 0.16667 0.16667 0.16667 
0.16667 0.16667 0.16667 0.16667 0.16667 0.16667 0.16667 0.16667 0.16667 
0.16667 0.16667 0.16667 0.16667 0.16667 0.16667 0.16667 0.16667 0.16667 
0.16667 0.16667 0.16667 0.16667 0.16667 0.16667 0.16667 0.16667 0.16667 
0.16667 0.16667 0.16667 0.16667 0.16667 0.16667 0.16667 0.16667 0.16667 
0.16667 0.16667 0.16667 0.16667 0.16667 0.16667 0.16667 0.16667 0.16667 
0.16667 0.16667 0.16667 0.16667 0.16667 0.16667 0.16667 0.16667 0.16667 
0.16667 0.16667 0.16667 0.16667 0.16667 0.16667 0.16667 0.16667 0.16667 
0.16667 0.16667 0.16667 0.16667 0.16667 0.16667 0.16667 0.16667 0.16667 
0.16667 0.16667 0.16667 0.16667 0.16667 0.16667 0.16667 0.16667 0.16667 
0.16667 0.16667 0.16667 0.16667 0.16667 0.16667 0.16667 0.16667 0.16667 
0.16667 0.16667 0.16667 0.16667 0.16667 0.16667 0.16667 0.16667 0.16667 
0.16667 0.16667 0.16667 0.16667 0.16667 0.16667 0.16667 0.16667 0.16667 
0.16667 0.16667 0.16667 0.16667 0.16667 0.16667 0.16667 0.16667 0.16667 
0.16667 0.16667 0.16667 0.16667 0.16667 0.16667 0.16667 0.16667 0.16667 
0.16667 0.16667 0.16667 0.16667 0.16667 0.16667 0.16667 0.16667 0.16667 
0.16667 0.16667 0.16667 0.16667 0.16667 0.16667 0.16667 0.16667 0.16667 
0.16667 0.16667 0.16667 0.16667 0.16667 0.16667 0.16667 0.16667 0.16667 
0.16667 0.16667 0.16667 0.16667 0.16667 0.16667 0.16667 0.16667 0.16667 
0.16667 0.16667 0.16667 0.16667 0.16667 0.16667 0.16667 0.16667 0.16667 
0.16667 0.16667 0.16667 0.16667 0.16667 0.16667 0.16667 0.16667 0.16667 
0.16667 0.16667 0.16667 0.16667 0.16667 0.16667 0.16667 0.16667 0.16667 
0.16667 0.16667 0.16667 0.16667 0.16667 0.16667 0.16667 0.16667 0.16667 
0.16667 0.16667 0.16667 0.16667 0.16667 0.16667 0.16667 0.16667 0.16667 
0.16667 0.16667 0.16667 0.16667 0.16667 0.16667 0.16667 0.16667 0.16667 
0.16667 0.16667 0.16667 0.16667 0.16667 0.16667 0.16667 0.16667 0.16667 
0.16667 0.16667 0.16667 0.16667 0.16667 0.16667 0.16667 0.16667 0.16667 
0.16667 0.16667 0.16667 0.16667 0.16667 0.16667 0.16667 0.16667 0.16667 
0.16667 0.16667 0.16667 0.16667 0.16667 0.16667 0.16667 0.16667 0.16667 
0.16667 0.16667 0.16667 0.16667 0.16667 0.16667 0.16667 0.16667 0.16667 
0.16667 0.16667 0.16667 0.16667 0.16667 0.16667 0.16667 0.16667 0.16667 
0.16667 0.16667 0.16667 0.16667 0.16667 0.16667 0.16667 0.16667 0.16667 
0.16667 0.16667 0.16667 0.16667 0.16667 0.16667 0.16667 0.16667 0.16667 
0.16667 0.16667 0.16667 0.16667 0.16667 0.16667 0.16667 0.16667 0.16667 
0.16667 0.16667 0.16667 0.16667 0.16667 0.16667 0.16667 0.16667 0.16667 
0.16667 0.16667 0.16667 0.16667 0.16667 0.16667 0.16667 0.16667 0.16667 
0.16667 0.16667 0.16667 0.16667 0.16667 0.16667 0.16667 0.16667 0.16667 
0.16667 0.16667 0.16667 0.16667 0.16667 0.16667 0.16667 0.16667 0.16667 
0.16667 0.16667 0.16667 0.16667 0.16667 0.16667 0.16667 0.16667 0.16667 
0.16667 0.16667 0.16667 0.16667 0.16667 0.16667 0.16667 0.16667 0.16667 
0.16667 0.16667 0.16667 0.16667 0.16667 0.16667 0.16667 0.16667 0.16667 
0.16667 0.16667 0.16667 0.16667 0.16667 0.16667 0.16667 0.16667 0.16667 
0.16667 0.16667 0.16667 0.16667 0.16667 0.16667 0.16667 0.16667 0.16667 
0.16667 0.16667 0.16667 0.16667 0.16667 0.16667 0.16667 0.16667 0.16667 
0.16667 0.16667 0.16667 0.16667 0.16667 0.16667 0.16667 0.16667 0.16667 
0.16667 0.16667 0.16667 0.16667 0.16667 0.16667 0.16667 0.16667 0.16667 
0.16667 0.16667 0.16667 0.16667 0.16667 0.16667 0.16667 0.16667 0.16667 
0.16667 0.16667 0.16667 0.16667 0.16667 0.16667 0.16667 0.16667 0.16667 
0.16667 0.16667 0.16667 0.16667 0.16667 0.16667 0.16667 0.16667 0.16667 
0.16667 0.16667 0.16667 0.16667 0.16667 0.16667 0.16667 0.16667 0.16667 
0.16667 0.16667 0.16667 0.16667 0.16667 0.16667 0.16667 0.16667 0.16667 
0.16667 0.16667 0.16667 0.16667 0.16667 0.16667 0.16667 0.16667 0.16667 
0.16667 0.16667 0.16667 0.16667 0.16667 0.16667 0.16667 0.16667 0.16667 
0.16667 0.16667 0.16667 0.16667 0.16667 0.16667 0.16667 0.16667 0.16667 
0.16667 0.16667 0.16667 0.16667 0.16667 0.16667 0.16667 0.16667 0.16667 
0.16667 0.16667 0.16667 0.16667 0.16667 0.16667 0.16667 0.16667 0.16667 
0.16667 0.16667 0.16667 0.16667 0.16667 0.16667 0.16667 0.16667 0.16667 
0.16667 0.16667 0.16667 0.16667 0.16667 0.16667 0.16667 0.16667 0.16667 
0.16667 0.16667 0.16667 0.16667 0.16667 0.16667 0.16667 0.16667 0.16667 
0.16667 0.16667 0.16667 0.16667 0.16667 0.16667 0.16667 0.16667 0.16667 
0.16667 0.16667 0.16667 0.16667 0.16667 0.16667 0.16667 0.16667 0.16667 
0.16667 0.16667 0.16667 0.16667 0.16667 0.16667 0.16667 0.16667 0.16667 
0.16667 0.16667 0.16667 0.16667 0.16667 0.16667 0.16667 0.16667 0.16667 